 Et-H, DFT BMK/cc-pVTZ freq                              
GAUSSIAN              9 MOL ORBITALS    206 PRIMITIVES        8 NUCLEI
  C    1    (CENTRE  1)   0.00000000  0.00000000  1.45134935  CHARGE =  6.0
  C    2    (CENTRE  2)   0.00000000  0.00000000 -1.45134935  CHARGE =  6.0
  H    3    (CENTRE  3)   0.96196424  1.66618315  2.19445770  CHARGE =  1.0
  H    4    (CENTRE  4)   0.96197481 -1.66617704  2.19445770  CHARGE =  1.0
  H    5    (CENTRE  5)  -1.92393905 -0.00000611  2.19445770  CHARGE =  1.0
  H    6    (CENTRE  6)  -0.96197481 -1.66617704 -2.19445770  CHARGE =  1.0
  H    7    (CENTRE  7)  -0.96196424  1.66618315 -2.19445770  CHARGE =  1.0
  H    8    (CENTRE  8)   1.92393905 -0.00000611 -2.19445770  CHARGE =  1.0
CENTRE ASSIGNMENTS    1  1  1  1  1  1  1  1  1  1  1  1  1  1  1  1  1  1  1  1
CENTRE ASSIGNMENTS    1  1  1  1  1  1  1  1  1  1  1  1  1  1  1  1  1  1  1  1
CENTRE ASSIGNMENTS    1  1  1  1  1  1  1  1  1  1  1  1  2  2  2  2  2  2  2  2
CENTRE ASSIGNMENTS    2  2  2  2  2  2  2  2  2  2  2  2  2  2  2  2  2  2  2  2
CENTRE ASSIGNMENTS    2  2  2  2  2  2  2  2  2  2  2  2  2  2  2  2  2  2  2  2
CENTRE ASSIGNMENTS    2  2  2  2  3  3  3  3  3  3  3  3  3  3  3  3  3  3  3  3
CENTRE ASSIGNMENTS    3  4  4  4  4  4  4  4  4  4  4  4  4  4  4  4  4  4  5  5
CENTRE ASSIGNMENTS    5  5  5  5  5  5  5  5  5  5  5  5  5  5  5  6  6  6  6  6
CENTRE ASSIGNMENTS    6  6  6  6  6  6  6  6  6  6  6  6  7  7  7  7  7  7  7  7
CENTRE ASSIGNMENTS    7  7  7  7  7  7  7  7  7  8  8  8  8  8  8  8  8  8  8  8
CENTRE ASSIGNMENTS    8  8  8  8  8  8
TYPE ASSIGNMENTS      1  1  1  1  1  1  1  1  1  1  1  1  1  1  1  2  2  2  3  3
TYPE ASSIGNMENTS      3  4  4  4  2  3  4  2  3  4  5  6  7  8  9 10  5  6  7  8
TYPE ASSIGNMENTS      9 10 11 12 13 17 14 15 18 19 16 20  1  1  1  1  1  1  1  1
TYPE ASSIGNMENTS      1  1  1  1  1  1  1  2  2  2  3  3  3  4  4  4  2  3  4  2
TYPE ASSIGNMENTS      3  4  5  6  7  8  9 10  5  6  7  8  9 10 11 12 13 17 14 15
TYPE ASSIGNMENTS     18 19 16 20  1  1  1  1  1  2  3  4  2  3  4  5  6  7  8  9
TYPE ASSIGNMENTS     10  1  1  1  1  1  2  3  4  2  3  4  5  6  7  8  9 10  1  1
TYPE ASSIGNMENTS      1  1  1  2  3  4  2  3  4  5  6  7  8  9 10  1  1  1  1  1
TYPE ASSIGNMENTS      2  3  4  2  3  4  5  6  7  8  9 10  1  1  1  1  1  2  3  4
TYPE ASSIGNMENTS      2  3  4  5  6  7  8  9 10  1  1  1  1  1  2  3  4  2  3  4
TYPE ASSIGNMENTS      5  6  7  8  9 10
EXPONENTS  0.8236000D+04 0.1235000D+04 0.2808000D+03 0.7927000D+02 0.2559000D+02
EXPONENTS  0.8997000D+01 0.3319000D+01 0.2808000D+03 0.7927000D+02 0.2559000D+02
EXPONENTS  0.8997000D+01 0.3319000D+01 0.3643000D+00 0.9059000D+00 0.1285000D+00
EXPONENTS  0.1871000D+02 0.4133000D+01 0.1200000D+01 0.1871000D+02 0.4133000D+01
EXPONENTS  0.1200000D+01 0.1871000D+02 0.4133000D+01 0.1200000D+01 0.3827000D+00
EXPONENTS  0.3827000D+00 0.3827000D+00 0.1209000D+00 0.1209000D+00 0.1209000D+00
EXPONENTS  0.1097000D+01 0.1097000D+01 0.1097000D+01 0.1097000D+01 0.1097000D+01
EXPONENTS  0.1097000D+01 0.3180000D+00 0.3180000D+00 0.3180000D+00 0.3180000D+00
EXPONENTS  0.3180000D+00 0.3180000D+00 0.7610000D+00 0.7610000D+00 0.7610000D+00
EXPONENTS  0.7610000D+00 0.7610000D+00 0.7610000D+00 0.7610000D+00 0.7610000D+00
EXPONENTS  0.7610000D+00 0.7610000D+00 0.8236000D+04 0.1235000D+04 0.2808000D+03
EXPONENTS  0.7927000D+02 0.2559000D+02 0.8997000D+01 0.3319000D+01 0.2808000D+03
EXPONENTS  0.7927000D+02 0.2559000D+02 0.8997000D+01 0.3319000D+01 0.3643000D+00
EXPONENTS  0.9059000D+00 0.1285000D+00 0.1871000D+02 0.4133000D+01 0.1200000D+01
EXPONENTS  0.1871000D+02 0.4133000D+01 0.1200000D+01 0.1871000D+02 0.4133000D+01
EXPONENTS  0.1200000D+01 0.3827000D+00 0.3827000D+00 0.3827000D+00 0.1209000D+00
EXPONENTS  0.1209000D+00 0.1209000D+00 0.1097000D+01 0.1097000D+01 0.1097000D+01
EXPONENTS  0.1097000D+01 0.1097000D+01 0.1097000D+01 0.3180000D+00 0.3180000D+00
EXPONENTS  0.3180000D+00 0.3180000D+00 0.3180000D+00 0.3180000D+00 0.7610000D+00
EXPONENTS  0.7610000D+00 0.7610000D+00 0.7610000D+00 0.7610000D+00 0.7610000D+00
EXPONENTS  0.7610000D+00 0.7610000D+00 0.7610000D+00 0.7610000D+00 0.3387000D+02
EXPONENTS  0.5095000D+01 0.1159000D+01 0.3258000D+00 0.1027000D+00 0.1407000D+01
EXPONENTS  0.1407000D+01 0.1407000D+01 0.3880000D+00 0.3880000D+00 0.3880000D+00
EXPONENTS  0.1057000D+01 0.1057000D+01 0.1057000D+01 0.1057000D+01 0.1057000D+01
EXPONENTS  0.1057000D+01 0.3387000D+02 0.5095000D+01 0.1159000D+01 0.3258000D+00
EXPONENTS  0.1027000D+00 0.1407000D+01 0.1407000D+01 0.1407000D+01 0.3880000D+00
EXPONENTS  0.3880000D+00 0.3880000D+00 0.1057000D+01 0.1057000D+01 0.1057000D+01
EXPONENTS  0.1057000D+01 0.1057000D+01 0.1057000D+01 0.3387000D+02 0.5095000D+01
EXPONENTS  0.1159000D+01 0.3258000D+00 0.1027000D+00 0.1407000D+01 0.1407000D+01
EXPONENTS  0.1407000D+01 0.3880000D+00 0.3880000D+00 0.3880000D+00 0.1057000D+01
EXPONENTS  0.1057000D+01 0.1057000D+01 0.1057000D+01 0.1057000D+01 0.1057000D+01
EXPONENTS  0.3387000D+02 0.5095000D+01 0.1159000D+01 0.3258000D+00 0.1027000D+00
EXPONENTS  0.1407000D+01 0.1407000D+01 0.1407000D+01 0.3880000D+00 0.3880000D+00
EXPONENTS  0.3880000D+00 0.1057000D+01 0.1057000D+01 0.1057000D+01 0.1057000D+01
EXPONENTS  0.1057000D+01 0.1057000D+01 0.3387000D+02 0.5095000D+01 0.1159000D+01
EXPONENTS  0.3258000D+00 0.1027000D+00 0.1407000D+01 0.1407000D+01 0.1407000D+01
EXPONENTS  0.3880000D+00 0.3880000D+00 0.3880000D+00 0.1057000D+01 0.1057000D+01
EXPONENTS  0.1057000D+01 0.1057000D+01 0.1057000D+01 0.1057000D+01 0.3387000D+02
EXPONENTS  0.5095000D+01 0.1159000D+01 0.3258000D+00 0.1027000D+00 0.1407000D+01
EXPONENTS  0.1407000D+01 0.1407000D+01 0.3880000D+00 0.3880000D+00 0.3880000D+00
EXPONENTS  0.1057000D+01 0.1057000D+01 0.1057000D+01 0.1057000D+01 0.1057000D+01
EXPONENTS  0.1057000D+01
MO    1     MO 0.0        OCC NO =    2.0000000  ORB. ENERGY =  -10.448435
  0.23055339D+00  0.42979797D+00  0.72641713D+00  0.10919404D+01  0.13412532D+01
  0.11319704D+01  0.42565044D+00 -0.14594529D-04 -0.10908506D-03 -0.40767579D-03
 -0.11373520D-02 -0.15237381D-02  0.17992505D-02  0.23864784D-01  0.24941116D-02
  0.96161258D-16  0.90157292D-16  0.64197363D-16 -0.17084806D-14 -0.16018091D-14
 -0.11405835D-14 -0.86534902D-03 -0.81131972D-03 -0.57770797D-03  0.19489759D-15
  0.16969007D-14  0.22688815D-02  0.24143668D-15 -0.29286501D-16  0.18510623D-03
  0.64137610D-03  0.64137610D-03 -0.12827522D-02 -0.43985165D-15  0.32558555D-15
  0.12311491D-14  0.34665168D-03  0.34665168D-03 -0.69330336D-03  0.13183107D-14
 -0.18400149D-15  0.36101317D-15 -0.10582976D-02  0.10011011D-07 -0.34215632D-03
  0.31748929D-02 -0.30033034D-07  0.51323448D-03  0.82834800D-15 -0.53172001D-15
  0.51323448D-03  0.45891602D-15  0.23055339D+00  0.42979797D+00  0.72641713D+00
  0.10919404D+01  0.13412532D+01  0.11319704D+01  0.42565044D+00 -0.14594529D-04
 -0.10908506D-03 -0.40767579D-03 -0.11373520D-02 -0.15237381D-02  0.17992505D-02
  0.23864784D-01  0.24941116D-02 -0.96161258D-16 -0.90157292D-16 -0.64197363D-16
 -0.17084806D-14 -0.16018091D-14 -0.11405835D-14  0.86534902D-03  0.81131972D-03
  0.57770797D-03 -0.19489759D-15  0.16969007D-14 -0.22688815D-02 -0.24143668D-15
 -0.29286501D-16 -0.18510623D-03  0.64137610D-03  0.64137610D-03 -0.12827522D-02
  0.43985165D-15  0.32558555D-15 -0.12311491D-14  0.34665168D-03  0.34665168D-03
 -0.69330336D-03 -0.13183107D-14 -0.18400149D-15 -0.36101317D-15  0.10582976D-02
  0.10011011D-07  0.34215632D-03 -0.31748929D-02 -0.30033034D-07 -0.51323448D-03
 -0.82834800D-15 -0.53172001D-15 -0.51323448D-03  0.45891602D-15  0.81362786D-04
  0.14674114D-03  0.21636972D-03 -0.27357454D-02 -0.31034589D-03  0.91463984D-03
  0.15842102D-02  0.67730565D-03  0.84627472D-03  0.14658038D-02  0.98460807D-03
  0.50350795D-03 -0.98778052D-03  0.48427257D-03 -0.25829479D-02 -0.14431929D-02
 -0.24997051D-02  0.81362786D-04  0.14674114D-03  0.21636972D-03 -0.27357454D-02
 -0.31034589D-03  0.91464633D-03 -0.15842064D-02  0.67730565D-03  0.84628594D-03
 -0.14657973D-02  0.98460807D-03  0.50349086D-03 -0.98776344D-03  0.48427257D-03
  0.25829677D-02 -0.14432117D-02  0.24996943D-02  0.81362786D-04  0.14674114D-03
  0.21636972D-03 -0.27357454D-02 -0.31034589D-03 -0.18292862D-02 -0.37464395D-08
  0.67730565D-03 -0.16925607D-02 -0.64793241D-08  0.98460807D-03 -0.17334077D-02
  0.12491351D-02  0.48427257D-03 -0.19731143D-07  0.28864046D-02  0.10810352D-07
  0.81362786D-04  0.14674114D-03  0.21636972D-03 -0.27357454D-02 -0.31034589D-03
 -0.91464633D-03 -0.15842064D-02 -0.67730565D-03 -0.84628594D-03 -0.14657973D-02
 -0.98460807D-03  0.50349086D-03 -0.98776344D-03  0.48427257D-03 -0.25829677D-02
 -0.14432117D-02 -0.24996943D-02  0.81362786D-04  0.14674114D-03  0.21636972D-03
 -0.27357454D-02 -0.31034589D-03 -0.91463984D-03  0.15842102D-02 -0.67730565D-03
 -0.84627472D-03  0.14658038D-02 -0.98460807D-03  0.50350795D-03 -0.98778052D-03
  0.48427257D-03  0.25829479D-02 -0.14431929D-02  0.24997051D-02  0.81362786D-04
  0.14674114D-03  0.21636972D-03 -0.27357454D-02 -0.31034589D-03  0.18292862D-02
 -0.37464395D-08 -0.67730565D-03  0.16925607D-02 -0.64793241D-08 -0.98460807D-03
 -0.17334077D-02  0.12491351D-02  0.48427257D-03  0.19731143D-07  0.28864046D-02
 -0.10810352D-07
MO    2     MO 0.0        OCC NO =    2.0000000  ORB. ENERGY =  -10.448110
  0.23055088D+00  0.42979329D+00  0.72640922D+00  0.10919285D+01  0.13412386D+01
  0.11319581D+01  0.42564580D+00 -0.11961491D-04 -0.89404732D-04 -0.33412590D-03
 -0.93215923D-03 -0.12488364D-02  0.14746429D-02  0.23390150D-01  0.31532054D-02
  0.57222908D-15  0.53650113D-15  0.38202077D-15 -0.26744601D-15 -0.25074764D-15
 -0.17854726D-15  0.28746418D-03  0.26951594D-03  0.19191140D-03  0.25008634D-14
 -0.15627019D-14  0.21973646D-02  0.38887142D-15  0.14335268D-15 -0.35117271D-04
  0.52608043D-03  0.52608043D-03 -0.10521609D-02  0.20939146D-14  0.12948240D-15
  0.12970142D-14  0.62945759D-04  0.62945759D-04 -0.12589152D-03 -0.65981109D-15
  0.83621503D-15 -0.16713228D-14 -0.82766732D-03  0.81566758D-08 -0.15158390D-02
  0.24830020D-02 -0.24470027D-07  0.22737585D-02  0.29309313D-15 -0.69792186D-16
  0.22737585D-02 -0.98672993D-15 -0.23055088D+00 -0.42979329D+00 -0.72640922D+00
 -0.10919285D+01 -0.13412386D+01 -0.11319581D+01 -0.42564580D+00  0.11961491D-04
  0.89404732D-04  0.33412590D-03  0.93215923D-03  0.12488364D-02 -0.14746429D-02
 -0.23390150D-01 -0.31532054D-02  0.57222908D-15  0.53650113D-15  0.38202077D-15
  0.26744601D-15  0.25074764D-15  0.17854726D-15  0.28746418D-03  0.26951594D-03
  0.19191140D-03  0.25008634D-14  0.15627019D-14  0.21973646D-02  0.38887142D-15
 -0.14335268D-15 -0.35117271D-04 -0.52608043D-03 -0.52608043D-03  0.10521609D-02
  0.20939146D-14 -0.12948240D-15  0.12970142D-14 -0.62945759D-04 -0.62945759D-04
  0.12589152D-03 -0.65981109D-15 -0.83621503D-15 -0.16713228D-14 -0.82766732D-03
 -0.81566758D-08 -0.15158390D-02  0.24830020D-02  0.24470027D-07  0.22737585D-02
  0.29309313D-15  0.69792186D-16  0.22737585D-02  0.98672993D-15  0.38493976D-04
  0.69425472D-04  0.10236782D-03 -0.24110650D-02 -0.28373781D-03  0.98544225D-03
  0.17068505D-02  0.66909093D-03  0.85987110D-03  0.14893500D-02  0.41874838D-03
  0.30617482D-03 -0.13528782D-02  0.10467034D-02 -0.28735235D-02 -0.10984504D-02
 -0.19025832D-02  0.38493976D-04  0.69425472D-04  0.10236782D-03 -0.24110650D-02
 -0.28373781D-03  0.98545477D-03 -0.17068433D-02  0.66909093D-03  0.85987937D-03
 -0.14893452D-02  0.41874838D-03  0.30615721D-03 -0.13528606D-02  0.10467034D-02
  0.28735438D-02 -0.10984602D-02  0.19025776D-02  0.38493976D-04  0.69425472D-04
  0.10236782D-03 -0.24110650D-02 -0.28373781D-03 -0.19708970D-02 -0.72236533D-08
  0.66909093D-03 -0.17197505D-02 -0.47752009D-08  0.41874838D-03 -0.21823871D-02
  0.11356837D-02  0.10467034D-02 -0.20328440D-07  0.21969106D-02  0.56353702D-08
 -0.38493976D-04 -0.69425472D-04 -0.10236782D-03  0.24110650D-02  0.28373781D-03
  0.98545477D-03  0.17068433D-02  0.66909093D-03  0.85987937D-03  0.14893452D-02
  0.41874838D-03 -0.30615721D-03  0.13528606D-02 -0.10467034D-02  0.28735438D-02
  0.10984602D-02  0.19025776D-02 -0.38493976D-04 -0.69425472D-04 -0.10236782D-03
  0.24110650D-02  0.28373781D-03  0.98544225D-03 -0.17068505D-02  0.66909093D-03
  0.85987110D-03 -0.14893500D-02  0.41874838D-03 -0.30617482D-03  0.13528782D-02
 -0.10467034D-02 -0.28735235D-02  0.10984504D-02 -0.19025832D-02 -0.38493976D-04
 -0.69425472D-04 -0.10236782D-03  0.24110650D-02  0.28373781D-03 -0.19708970D-02
  0.72236533D-08  0.66909093D-03 -0.17197505D-02  0.47752009D-08  0.41874838D-03
  0.21823871D-02 -0.11356837D-02 -0.10467034D-02 -0.20328440D-07 -0.21969106D-02
  0.56353702D-08
MO    3     MO 0.0        OCC NO =    2.0000000  ORB. ENERGY =   -0.821905
 -0.46441339D-01 -0.86576012D-01 -0.14632526D+00 -0.21995415D+00 -0.27017428D+00
 -0.22801756D+00 -0.85740557D-01 -0.91153970D-03 -0.68131945D-02 -0.25462463D-01
 -0.71036308D-01 -0.95169069D-01  0.11237692D+00  0.50864349D-01  0.22419336D-01
  0.16171768D-14  0.15162060D-14  0.10796290D-14 -0.10947934D-15 -0.10264384D-15
 -0.73088527D-16 -0.67259148D-01 -0.63059727D-01 -0.44902282D-01 -0.51170069D-14
 -0.88829231D-14 -0.12319365D-01 -0.25361605D-15 -0.12677176D-14  0.41449829D-05
 -0.35310766D-02 -0.35310766D-02  0.70621533D-02 -0.43983255D-14 -0.89872354D-15
 -0.12981993D-14 -0.88489240D-04 -0.88489240D-04  0.17697848D-03 -0.87307332D-16
 -0.38215505D-14 -0.30087995D-14 -0.76838545D-03  0.85163728D-08 -0.18042392D-02
  0.23051564D-02 -0.25549118D-07  0.27063588D-02  0.77271065D-15 -0.84865840D-15
  0.27063588D-02 -0.26438257D-15 -0.46441339D-01 -0.86576012D-01 -0.14632526D+00
 -0.21995415D+00 -0.27017428D+00 -0.22801756D+00 -0.85740557D-01 -0.91153970D-03
 -0.68131945D-02 -0.25462463D-01 -0.71036308D-01 -0.95169069D-01  0.11237692D+00
  0.50864349D-01  0.22419336D-01 -0.16171768D-14 -0.15162060D-14 -0.10796290D-14
 -0.10947934D-15 -0.10264384D-15 -0.73088527D-16  0.67259148D-01  0.63059727D-01
  0.44902282D-01  0.51170069D-14 -0.88829231D-14  0.12319365D-01  0.25361605D-15
 -0.12677176D-14 -0.41449829D-05 -0.35310766D-02 -0.35310766D-02  0.70621533D-02
  0.43983255D-14 -0.89872354D-15  0.12981993D-14 -0.88489240D-04 -0.88489240D-04
  0.17697848D-03  0.87307332D-16 -0.38215505D-14  0.30087995D-14  0.76838545D-03
  0.85163728D-08  0.18042392D-02 -0.23051564D-02 -0.25549118D-07 -0.27063588D-02
 -0.77271065D-15 -0.84865840D-15 -0.27063588D-02 -0.26438257D-15  0.14069166D-01
  0.25374321D-01  0.37414421D-01  0.14107921D-01  0.40299015D-03 -0.53844430D-02
 -0.93262011D-02 -0.55113656D-02  0.59709837D-03  0.10342145D-02 -0.37264618D-03
 -0.50524282D-03 -0.34126821D-03  0.84651104D-03  0.28400556D-03  0.65420462D-03
  0.11331239D-02  0.14069166D-01  0.25374321D-01  0.37414421D-01  0.14107921D-01
  0.40299015D-03 -0.53845055D-02  0.93261650D-02 -0.55113656D-02  0.59710682D-03
 -0.10342096D-02 -0.37264618D-03 -0.50523988D-03 -0.34127116D-03  0.84651104D-03
 -0.28400896D-03  0.65421178D-03 -0.11331198D-02  0.14069166D-01  0.25374321D-01
  0.37414421D-01  0.14107921D-01  0.40299015D-03  0.10768949D-01  0.36077706D-07
 -0.55113656D-02 -0.11942052D-02 -0.48758744D-08 -0.37264618D-03 -0.25928385D-03
 -0.58722719D-03  0.84651104D-03  0.33996288D-08 -0.13084164D-02 -0.41326199D-08
  0.14069166D-01  0.25374321D-01  0.37414421D-01  0.14107921D-01  0.40299015D-03
  0.53845055D-02  0.93261650D-02  0.55113656D-02 -0.59710682D-03 -0.10342096D-02
  0.37264618D-03 -0.50523988D-03 -0.34127116D-03  0.84651104D-03  0.28400896D-03
  0.65421178D-03  0.11331198D-02  0.14069166D-01  0.25374321D-01  0.37414421D-01
  0.14107921D-01  0.40299015D-03  0.53844430D-02 -0.93262011D-02  0.55113656D-02
 -0.59709837D-03  0.10342145D-02  0.37264618D-03 -0.50524282D-03 -0.34126821D-03
  0.84651104D-03 -0.28400556D-03  0.65420462D-03 -0.11331239D-02  0.14069166D-01
  0.25374321D-01  0.37414421D-01  0.14107921D-01  0.40299015D-03 -0.10768949D-01
  0.36077706D-07  0.55113656D-02  0.11942052D-02 -0.48758744D-08  0.37264618D-03
 -0.25928385D-03 -0.58722719D-03  0.84651104D-03 -0.33996288D-08 -0.13084164D-02
  0.41326199D-08
MO    4     MO 0.0        OCC NO =    2.0000000  ORB. ENERGY =   -0.677579
 -0.40644507D-01 -0.75769550D-01 -0.12806086D+00 -0.19249936D+00 -0.23645099D+00
 -0.19955629D+00 -0.75038377D-01 -0.81544318D-03 -0.60949326D-02 -0.22778155D-01
 -0.63547505D-01 -0.85136137D-01  0.10052990D+00  0.45865653D-01  0.30840226D-01
  0.32596777D-15  0.30561551D-15  0.21761645D-15  0.26977269D-15  0.25292904D-15
  0.18010054D-15  0.15997518D+00  0.14998690D+00  0.10679961D+00  0.71553055D-14
 -0.10360309D-13  0.33388804D-01  0.15290046D-14 -0.13347223D-14  0.15921693D-02
  0.55275863D-02  0.55275863D-02 -0.11055173D-01  0.38534057D-15 -0.14815387D-14
  0.28607400D-15  0.37054450D-03  0.37054450D-03 -0.74108900D-03 -0.13531713D-14
  0.19076397D-14 -0.81182438D-14 -0.65363687D-03  0.52727288D-08 -0.15746953D-02
  0.19609106D-02 -0.15818188D-07  0.23620430D-02 -0.55958250D-15  0.11941079D-14
  0.23620430D-02 -0.70553806D-15  0.40644507D-01  0.75769550D-01  0.12806086D+00
  0.19249936D+00  0.23645099D+00  0.19955629D+00  0.75038377D-01  0.81544318D-03
  0.60949326D-02  0.22778155D-01  0.63547505D-01  0.85136137D-01 -0.10052990D+00
 -0.45865653D-01 -0.30840226D-01  0.32596777D-15  0.30561551D-15  0.21761645D-15
 -0.26977269D-15 -0.25292904D-15 -0.18010054D-15  0.15997518D+00  0.14998690D+00
  0.10679961D+00  0.71553055D-14  0.10360309D-13  0.33388804D-01  0.15290046D-14
  0.13347223D-14  0.15921693D-02 -0.55275863D-02 -0.55275863D-02  0.11055173D-01
  0.38534057D-15  0.14815387D-14  0.28607400D-15 -0.37054450D-03 -0.37054450D-03
  0.74108900D-03 -0.13531713D-14 -0.19076397D-14 -0.81182438D-14 -0.65363687D-03
 -0.52727288D-08 -0.15746953D-02  0.19609106D-02  0.15818188D-07  0.23620430D-02
 -0.55958250D-15 -0.11941079D-14  0.23620430D-02  0.70553806D-15  0.19136212D-01
  0.34512947D-01  0.50889320D-01  0.23155081D-01  0.18360544D-02 -0.75130856D-02
 -0.13013138D-01 -0.35760666D-02 -0.93272334D-05 -0.16157779D-04  0.94215601D-03
  0.36596083D-04  0.71889776D-03 -0.75549384D-03  0.11817660D-02  0.30325158D-03
  0.52525288D-03  0.19136212D-01  0.34512947D-01  0.50889320D-01  0.23155081D-01
  0.18360544D-02 -0.75131657D-02  0.13013092D-01 -0.35760666D-02 -0.93294300D-05
  0.16156510D-04  0.94215601D-03  0.36602671D-04  0.71889117D-03 -0.75549384D-03
 -0.11817736D-02  0.30325654D-03 -0.52525001D-03  0.19136212D-01  0.34512947D-01
  0.50889320D-01  0.23155081D-01  0.18360544D-02  0.15026251D-01  0.46229544D-07
 -0.35760666D-02  0.18656663D-04  0.12682492D-08  0.94215601D-03  0.10600420D-02
 -0.30454817D-03 -0.75549384D-03  0.76067409D-08 -0.60650812D-03 -0.28657295D-08
 -0.19136212D-01 -0.34512947D-01 -0.50889320D-01 -0.23155081D-01 -0.18360544D-02
 -0.75131657D-02 -0.13013092D-01 -0.35760666D-02 -0.93294300D-05 -0.16156510D-04
  0.94215601D-03 -0.36602671D-04 -0.71889117D-03  0.75549384D-03 -0.11817736D-02
 -0.30325654D-03 -0.52525001D-03 -0.19136212D-01 -0.34512947D-01 -0.50889320D-01
 -0.23155081D-01 -0.18360544D-02 -0.75130856D-02  0.13013138D-01 -0.35760666D-02
 -0.93272334D-05  0.16157779D-04  0.94215601D-03 -0.36596083D-04 -0.71889776D-03
  0.75549384D-03  0.11817660D-02 -0.30325158D-03  0.52525288D-03 -0.19136212D-01
 -0.34512947D-01 -0.50889320D-01 -0.23155081D-01 -0.18360544D-02  0.15026251D-01
 -0.46229544D-07 -0.35760666D-02  0.18656663D-04 -0.12682492D-08  0.94215601D-03
 -0.10600420D-02  0.30454817D-03  0.75549384D-03  0.76067409D-08  0.60650812D-03
 -0.28657295D-08
MO    5     MO 0.0        OCC NO =    2.0000000  ORB. ENERGY =   -0.482024
  0.42386267D-16  0.79016541D-16  0.13354872D-15  0.20074863D-15  0.24658374D-15
  0.20810798D-15  0.78254035D-16 -0.60140108D-17 -0.44951005D-16 -0.16799217D-15
 -0.46867199D-15 -0.62789125D-15  0.74142249D-15  0.16546762D-15  0.39154707D-14
  0.39448102D+00  0.36985104D+00  0.26335597D+00 -0.42386085D-07 -0.39739649D-07
 -0.28296997D-07 -0.34303921D-15 -0.32162106D-15 -0.22901336D-15  0.86328295D-01
 -0.15038106D-07  0.42007551D-15  0.98930585D-02  0.51611929D-08 -0.71917062D-15
 -0.12623211D-01  0.12623211D-01 -0.99968319D-15 -0.25089274D-06  0.52452583D-02
  0.92483086D-09 -0.20910584D-03  0.20910584D-03 -0.71077934D-16 -0.21892231D-07
 -0.27345096D-02 -0.12027850D-07 -0.13086445D-02 -0.98590642D-09 -0.20918163D-15
 -0.13086445D-02 -0.98590285D-09  0.89763624D-03  0.52345780D-02  0.39436221D-08
 -0.89763624D-03  0.20654856D-07 -0.42386267D-16 -0.79016541D-16 -0.13354872D-15
 -0.20074863D-15 -0.24658374D-15 -0.20810798D-15 -0.78254035D-16  0.60140108D-17
  0.44951005D-16  0.16799217D-15  0.46867199D-15  0.62789125D-15 -0.74142249D-15
 -0.16546762D-15 -0.39154707D-14  0.39448102D+00  0.36985104D+00  0.26335597D+00
  0.42386085D-07  0.39739649D-07  0.28296997D-07 -0.34303921D-15 -0.32162106D-15
 -0.22901336D-15  0.86328295D-01  0.15038106D-07  0.42007551D-15  0.98930585D-02
 -0.51611929D-08 -0.71917062D-15  0.12623211D-01 -0.12623211D-01  0.99968319D-15
 -0.25089274D-06 -0.52452583D-02  0.92483086D-09  0.20910584D-03 -0.20910584D-03
  0.71077934D-16 -0.21892231D-07  0.27345096D-02 -0.12027850D-07 -0.13086445D-02
  0.98590642D-09 -0.20918163D-15 -0.13086445D-02  0.98590285D-09  0.89763624D-03
  0.52345780D-02 -0.39436221D-08 -0.89763624D-03 -0.20654856D-07  0.14223604D-01
  0.25652856D-01  0.37825121D-01  0.24702158D-01  0.34830135D-02  0.54389237D-03
 -0.10587013D-01 -0.56335294D-02  0.23239136D-02 -0.19845990D-02 -0.10350977D-02
 -0.15059324D-02  0.12372197D-02  0.26871273D-03 -0.15097665D-03  0.15291402D-03
  0.21733065D-02  0.14223768D-01  0.25653152D-01  0.37825557D-01  0.24702429D-01
  0.34830694D-02  0.54375987D-03  0.10587090D-01 -0.56335865D-02  0.23238885D-02
  0.19846048D-02 -0.10351190D-02 -0.15059333D-02  0.12372150D-02  0.26871830D-03
  0.15092288D-03  0.15294330D-03 -0.21733217D-02 -0.28447372D-01 -0.51306007D-01
 -0.75650678D-01 -0.49404587D-01 -0.69660830D-02 -0.17793485D-01 -0.76268995D-07
  0.11267116D-01 -0.11135303D-02 -0.18871328D-07  0.20702167D-02 -0.97213326D-03
  0.15095643D-02 -0.53743103D-03 -0.30080748D-07  0.39172191D-02  0.17744678D-07
 -0.14223768D-01 -0.25653152D-01 -0.37825557D-01 -0.24702429D-01 -0.34830694D-02
  0.54375987D-03 -0.10587090D-01 -0.56335865D-02  0.23238885D-02 -0.19846048D-02
 -0.10351190D-02  0.15059333D-02 -0.12372150D-02 -0.26871830D-03  0.15092288D-03
 -0.15294330D-03 -0.21733217D-02 -0.14223604D-01 -0.25652856D-01 -0.37825121D-01
 -0.24702158D-01 -0.34830135D-02  0.54389237D-03  0.10587013D-01 -0.56335294D-02
  0.23239136D-02  0.19845990D-02 -0.10350977D-02  0.15059324D-02 -0.12372197D-02
 -0.26871273D-03 -0.15097665D-03 -0.15291402D-03  0.21733065D-02  0.28447372D-01
  0.51306007D-01  0.75650678D-01  0.49404587D-01  0.69660830D-02 -0.17793485D-01
  0.76268995D-07  0.11267116D-01 -0.11135303D-02  0.18871328D-07  0.20702167D-02
  0.97213326D-03 -0.15095643D-02  0.53743103D-03 -0.30080748D-07 -0.39172191D-02
  0.17744678D-07
MO    6     MO 0.0        OCC NO =    2.0000000  ORB. ENERGY =   -0.482024
  0.38502935D-15  0.71777228D-15  0.12131329D-14  0.18235651D-14  0.22399231D-14
  0.18904161D-14  0.71084581D-15 -0.31319471D-16 -0.23409364D-15 -0.87486137D-15
 -0.24407270D-14 -0.32699013D-14  0.38611437D-14  0.20799590D-15  0.57593916D-14
  0.42386084D-07  0.39739648D-07  0.28296996D-07  0.39448102D+00  0.36985104D+00
  0.26335597D+00 -0.22885856D-14 -0.21456944D-14 -0.15278623D-14  0.15038086D-07
  0.86328295D-01  0.27373574D-14 -0.51611949D-08  0.98930585D-02  0.52318065D-15
 -0.12544637D-06  0.12544637D-06 -0.10197650D-14  0.25246422D-01 -0.92483542D-09
  0.52452583D-02 -0.10946111D-07  0.10946111D-07 -0.58438191D-15  0.41821169D-03
  0.12027842D-07 -0.27345096D-02  0.98590427D-09 -0.13086445D-02 -0.51752577D-15
  0.98590746D-09 -0.13086445D-02  0.10327435D-07 -0.39436203D-08  0.52345780D-02
 -0.10327434D-07 -0.17952725D-02  0.38502935D-15  0.71777228D-15  0.12131329D-14
  0.18235651D-14  0.22399231D-14  0.18904161D-14  0.71084581D-15 -0.31319471D-16
 -0.23409364D-15 -0.87486137D-15 -0.24407270D-14 -0.32699013D-14  0.38611437D-14
  0.20799590D-15  0.57593916D-14 -0.42386084D-07 -0.39739648D-07 -0.28296996D-07
  0.39448102D+00  0.36985104D+00  0.26335597D+00  0.22885856D-14  0.21456944D-14
  0.15278623D-14 -0.15038086D-07  0.86328295D-01 -0.27373574D-14  0.51611949D-08
  0.98930585D-02 -0.52318065D-15 -0.12544637D-06  0.12544637D-06 -0.10197650D-14
 -0.25246422D-01 -0.92483542D-09 -0.52452583D-02 -0.10946111D-07  0.10946111D-07
 -0.58438191D-15 -0.41821169D-03  0.12027842D-07  0.27345096D-02 -0.98590427D-09
 -0.13086445D-02  0.51752577D-15 -0.98590746D-09 -0.13086445D-02 -0.10327435D-07
  0.39436203D-08  0.52345780D-02  0.10327434D-07 -0.17952725D-02  0.24636194D-01
  0.44432391D-01  0.65515535D-01  0.42785706D-01  0.60328210D-02 -0.10587014D-01
 -0.11681114D-01 -0.97576251D-02 -0.19845903D-02  0.32267585D-04 -0.17928664D-02
 -0.15725489D-03 -0.30817564D-03  0.46543053D-03  0.25688466D-02  0.21733048D-02
  0.26624703D-02 -0.24636100D-01 -0.44432220D-01 -0.65515283D-01 -0.42785549D-01
 -0.60327887D-02  0.10587090D-01 -0.11680982D-01  0.97575922D-02  0.19846135D-02
  0.32292742D-04  0.17928541D-02  0.15722427D-03  0.30820305D-03 -0.46542731D-03
  0.25688503D-02 -0.21733234D-02  0.26624410D-02 -0.94778556D-07 -0.17093703D-06
 -0.25204655D-06 -0.15678629D-06 -0.32286587D-07 -0.76737545D-07  0.66562632D-02
  0.32956043D-07 -0.10177632D-07  0.34697115D-02  0.12302996D-07 -0.11302329D-07
  0.14521280D-07 -0.32189508D-08  0.28303011D-02  0.16064808D-07 -0.11018348D-02
 -0.24636100D-01 -0.44432220D-01 -0.65515283D-01 -0.42785549D-01 -0.60327887D-02
 -0.10587090D-01 -0.11680982D-01 -0.97575922D-02 -0.19846135D-02  0.32292742D-04
 -0.17928541D-02  0.15722427D-03  0.30820305D-03 -0.46542731D-03 -0.25688503D-02
 -0.21733234D-02 -0.26624410D-02  0.24636194D-01  0.44432391D-01  0.65515535D-01
  0.42785706D-01  0.60328210D-02  0.10587014D-01 -0.11681114D-01  0.97576251D-02
  0.19845903D-02  0.32267585D-04  0.17928664D-02 -0.15725489D-03 -0.30817564D-03
  0.46543053D-03 -0.25688466D-02  0.21733048D-02 -0.26624703D-02 -0.94778556D-07
 -0.17093703D-06 -0.25204655D-06 -0.15678629D-06 -0.32286587D-07  0.76737545D-07
  0.66562632D-02 -0.32956043D-07  0.10177632D-07  0.34697115D-02 -0.12302996D-07
 -0.11302329D-07  0.14521280D-07 -0.32189508D-08 -0.28303011D-02  0.16064808D-07
  0.11018348D-02
MO    7     MO 0.0        OCC NO =    2.0000000  ORB. ENERGY =   -0.405430
  0.55739603D-02  0.10390985D-01  0.17562180D-01  0.26399232D-01  0.32426729D-01
  0.27367015D-01  0.10290712D-01  0.12553416D-03  0.93829006D-03  0.35066042D-02
  0.97828797D-02  0.13106362D-01 -0.15476169D-01 -0.66353233D-02  0.53932833D-03
 -0.77904901D-14 -0.73040797D-14 -0.52009399D-14  0.18017535D-14  0.16892584D-14
  0.12028526D-14  0.50960310D+00  0.47778530D+00  0.34021159D+00  0.28544946D-14
  0.85881957D-16  0.11874441D+00  0.77729813D-15  0.37823898D-15  0.13894087D-01
  0.13712557D-01  0.13712557D-01 -0.27425114D-01 -0.21320245D-15  0.49551309D-15
 -0.84394826D-16  0.15475292D-02  0.15475292D-02 -0.30950585D-02  0.17020683D-14
  0.11034805D-14 -0.11230041D-15 -0.63527383D-03  0.61028846D-08  0.18059328D-02
  0.19058215D-02 -0.18308653D-07 -0.27088991D-02 -0.84913514D-15 -0.40611197D-15
 -0.27088991D-02  0.68624787D-15  0.55739603D-02  0.10390985D-01  0.17562180D-01
  0.26399232D-01  0.32426729D-01  0.27367015D-01  0.10290712D-01  0.12553416D-03
  0.93829006D-03  0.35066042D-02  0.97828797D-02  0.13106362D-01 -0.15476169D-01
 -0.66353233D-02  0.53932833D-03  0.77904901D-14  0.73040797D-14  0.52009399D-14
  0.18017535D-14  0.16892584D-14  0.12028526D-14 -0.50960310D+00 -0.47778530D+00
 -0.34021159D+00 -0.28544946D-14  0.85881957D-16 -0.11874441D+00 -0.77729813D-15
  0.37823898D-15 -0.13894087D-01  0.13712557D-01  0.13712557D-01 -0.27425114D-01
  0.21320245D-15  0.49551309D-15  0.84394826D-16  0.15475292D-02  0.15475292D-02
 -0.30950585D-02 -0.17020683D-14  0.11034805D-14  0.11230041D-15  0.63527383D-03
  0.61028846D-08 -0.18059328D-02 -0.19058215D-02 -0.18308653D-07  0.27088991D-02
  0.84913514D-15 -0.40611197D-15  0.27088991D-02  0.68624787D-15  0.12918066D-01
  0.23298264D-01  0.34353277D-01  0.20069616D-01  0.43773180D-02 -0.50026122D-02
 -0.86648431D-02  0.53282529D-02 -0.15810280D-03 -0.27384247D-03  0.55760737D-02
  0.99634925D-03  0.16870080D-02 -0.26833573D-02  0.11962389D-02 -0.21693505D-02
 -0.37574536D-02  0.12918066D-01  0.23298264D-01  0.34353277D-01  0.20069616D-01
  0.43773180D-02 -0.50026682D-02  0.86648108D-02  0.53282529D-02 -0.15810314D-03
  0.27384227D-03  0.55760737D-02  0.99635669D-03  0.16870006D-02 -0.26833573D-02
 -0.11962475D-02 -0.21693750D-02  0.37574394D-02  0.12918066D-01  0.23298264D-01
  0.34353277D-01  0.20069616D-01  0.43773180D-02  0.10005280D-01  0.32332680D-07
  0.53282529D-02  0.31620593D-03  0.19465555D-09  0.55760737D-02  0.20323299D-02
  0.65102731D-03 -0.26833573D-02  0.85937596D-08  0.43387255D-02  0.14150090D-07
  0.12918066D-01  0.23298264D-01  0.34353277D-01  0.20069616D-01  0.43773180D-02
  0.50026682D-02  0.86648108D-02 -0.53282529D-02  0.15810314D-03  0.27384227D-03
 -0.55760737D-02  0.99635669D-03  0.16870006D-02 -0.26833573D-02  0.11962475D-02
 -0.21693750D-02 -0.37574394D-02  0.12918066D-01  0.23298264D-01  0.34353277D-01
  0.20069616D-01  0.43773180D-02  0.50026122D-02 -0.86648431D-02 -0.53282529D-02
  0.15810280D-03 -0.27384247D-03 -0.55760737D-02  0.99634925D-03  0.16870080D-02
 -0.26833573D-02 -0.11962389D-02 -0.21693505D-02  0.37574536D-02  0.12918066D-01
  0.23298264D-01  0.34353277D-01  0.20069616D-01  0.43773180D-02 -0.10005280D-01
  0.32332680D-07 -0.53282529D-02 -0.31620593D-03  0.19465555D-09 -0.55760737D-02