 Difluorobenzo[c]phenanthrene; Energy+WFN;               
GAUSSIAN             68 MOL ORBITALS    600 PRIMITIVES       30 NUCLEI
  C    1    (CENTRE  1)   0.00000000  2.43838415 -0.02403713  CHARGE =  6.0
  C    2    (CENTRE  2)   0.00000000  0.00000000  1.23265416  CHARGE =  6.0
  C    3    (CENTRE  3)   0.00000000 -2.43838415 -0.02403713  CHARGE =  6.0
  C    4    (CENTRE  4)  -0.71893750  4.65292374  1.36209091  CHARGE =  6.0
  C    5    (CENTRE  5)  -0.86993128  7.02815850  0.13941343  CHARGE =  6.0
  C    6    (CENTRE  6)  -0.15828765  7.29552847 -2.35336972  CHARGE =  6.0
  C    7    (CENTRE  7)   0.82215499  5.20546178 -3.67174468  CHARGE =  6.0
  C    8    (CENTRE  8)   0.71893750 -4.65292374  1.36209091  CHARGE =  6.0
  C    9    (CENTRE  9)  -0.82215499 -5.20546178 -3.67174468  CHARGE =  6.0
  C   10    (CENTRE 10)   0.15828765 -7.29552847 -2.35336972  CHARGE =  6.0
  C   11    (CENTRE 11)   0.86993128 -7.02815850  0.13941343  CHARGE =  6.0
  C   12    (CENTRE 12)   0.00000000  0.00000000  3.91100298  CHARGE =  6.0
  C   13    (CENTRE 13)   0.59249302 -2.26156365  5.26583814  CHARGE =  6.0
  C   14    (CENTRE 14)   1.09749351 -4.46290536  4.02939425  CHARGE =  6.0
  C   15    (CENTRE 15)  -0.59249302  2.26156365  5.26583814  CHARGE =  6.0
  C   16    (CENTRE 16)  -1.09749351  4.46290536  4.02939425  CHARGE =  6.0
  C   17    (CENTRE 17)  -0.92645994 -2.88630288 -2.49760238  CHARGE =  6.0
  C   18    (CENTRE 18)   0.92645994  2.88630288 -2.49760238  CHARGE =  6.0
  H   19    (CENTRE 19)  -1.48934855  8.65524926  1.22839506  CHARGE =  1.0
  H   20    (CENTRE 20)  -0.25987506  9.12449370 -3.27890347  CHARGE =  1.0
  H   21    (CENTRE 21)   1.56697529  5.38095007 -5.57360077  CHARGE =  1.0
  H   22    (CENTRE 22)  -1.56697529 -5.38095007 -5.57360077  CHARGE =  1.0
  H   23    (CENTRE 23)   0.25987506 -9.12449370 -3.27890347  CHARGE =  1.0
  H   24    (CENTRE 24)   1.48934855 -8.65524926  1.22839506  CHARGE =  1.0
  H   25    (CENTRE 25)   0.69177281 -2.16715438  7.31572555  CHARGE =  1.0
  H   26    (CENTRE 26)   1.64724405 -6.14910616  5.06518970  CHARGE =  1.0
  H   27    (CENTRE 27)  -0.69177281  2.16715438  7.31572555  CHARGE =  1.0
  H   28    (CENTRE 28)  -1.64724405  6.14910616  5.06518970  CHARGE =  1.0
  F   29    (CENTRE 29)  -2.12362812 -1.00696317 -3.74307493  CHARGE =  9.0
  F   30    (CENTRE 30)   2.12362812  1.00696317 -3.74307493  CHARGE =  9.0
CENTRE ASSIGNMENTS    1  1  1  1  1  1  1  1  1  1  1  1  1  1  1  1  1  1  1  1
CENTRE ASSIGNMENTS    1  1  1  1  1  1  1  1  2  2  2  2  2  2  2  2  2  2  2  2
CENTRE ASSIGNMENTS    2  2  2  2  2  2  2  2  2  2  2  2  2  2  2  2  3  3  3  3
CENTRE ASSIGNMENTS    3  3  3  3  3  3  3  3  3  3  3  3  3  3  3  3  3  3  3  3
CENTRE ASSIGNMENTS    3  3  3  3  4  4  4  4  4  4  4  4  4  4  4  4  4  4  4  4
CENTRE ASSIGNMENTS    4  4  4  4  4  4  4  4  4  4  4  4  5  5  5  5  5  5  5  5
CENTRE ASSIGNMENTS    5  5  5  5  5  5  5  5  5  5  5  5  5  5  5  5  5  5  5  5
CENTRE ASSIGNMENTS    6  6  6  6  6  6  6  6  6  6  6  6  6  6  6  6  6  6  6  6
CENTRE ASSIGNMENTS    6  6  6  6  6  6  6  6  7  7  7  7  7  7  7  7  7  7  7  7
CENTRE ASSIGNMENTS    7  7  7  7  7  7  7  7  7  7  7  7  7  7  7  7  8  8  8  8
CENTRE ASSIGNMENTS    8  8  8  8  8  8  8  8  8  8  8  8  8  8  8  8  8  8  8  8
CENTRE ASSIGNMENTS    8  8  8  8  9  9  9  9  9  9  9  9  9  9  9  9  9  9  9  9
CENTRE ASSIGNMENTS    9  9  9  9  9  9  9  9  9  9  9  9 10 10 10 10 10 10 10 10
CENTRE ASSIGNMENTS   10 10 10 10 10 10 10 10 10 10 10 10 10 10 10 10 10 10 10 10
CENTRE ASSIGNMENTS   11 11 11 11 11 11 11 11 11 11 11 11 11 11 11 11 11 11 11 11
CENTRE ASSIGNMENTS   11 11 11 11 11 11 11 11 12 12 12 12 12 12 12 12 12 12 12 12
CENTRE ASSIGNMENTS   12 12 12 12 12 12 12 12 12 12 12 12 12 12 12 12 13 13 13 13
CENTRE ASSIGNMENTS   13 13 13 13 13 13 13 13 13 13 13 13 13 13 13 13 13 13 13 13
CENTRE ASSIGNMENTS   13 13 13 13 14 14 14 14 14 14 14 14 14 14 14 14 14 14 14 14
CENTRE ASSIGNMENTS   14 14 14 14 14 14 14 14 14 14 14 14 15 15 15 15 15 15 15 15
CENTRE ASSIGNMENTS   15 15 15 15 15 15 15 15 15 15 15 15 15 15 15 15 15 15 15 15
CENTRE ASSIGNMENTS   16 16 16 16 16 16 16 16 16 16 16 16 16 16 16 16 16 16 16 16
CENTRE ASSIGNMENTS   16 16 16 16 16 16 16 16 17 17 17 17 17 17 17 17 17 17 17 17
CENTRE ASSIGNMENTS   17 17 17 17 17 17 17 17 17 17 17 17 17 17 17 17 18 18 18 18
CENTRE ASSIGNMENTS   18 18 18 18 18 18 18 18 18 18 18 18 18 18 18 18 18 18 18 18
CENTRE ASSIGNMENTS   18 18 18 18 19 19 19 19 20 20 20 20 21 21 21 21 22 22 22 22
CENTRE ASSIGNMENTS   23 23 23 23 24 24 24 24 25 25 25 25 26 26 26 26 27 27 27 27
CENTRE ASSIGNMENTS   28 28 28 28 29 29 29 29 29 29 29 29 29 29 29 29 29 29 29 29
CENTRE ASSIGNMENTS   29 29 29 29 29 29 29 29 29 29 29 29 30 30 30 30 30 30 30 30
CENTRE ASSIGNMENTS   30 30 30 30 30 30 30 30 30 30 30 30 30 30 30 30 30 30 30 30
TYPE ASSIGNMENTS      1  1  1  1  1  1  1  1  1  2  2  2  3  3  3  4  4  4  1  2
TYPE ASSIGNMENTS      3  4  5  6  7  8  9 10  1  1  1  1  1  1  1  1  1  2  2  2
TYPE ASSIGNMENTS      3  3  3  4  4  4  1  2  3  4  5  6  7  8  9 10  1  1  1  1
TYPE ASSIGNMENTS      1  1  1  1  1  2  2  2  3  3  3  4  4  4  1  2  3  4  5  6
TYPE ASSIGNMENTS      7  8  9 10  1  1  1  1  1  1  1  1  1  2  2  2  3  3  3  4
TYPE ASSIGNMENTS      4  4  1  2  3  4  5  6  7  8  9 10  1  1  1  1  1  1  1  1
TYPE ASSIGNMENTS      1  2  2  2  3  3  3  4  4  4  1  2  3  4  5  6  7  8  9 10
TYPE ASSIGNMENTS      1  1  1  1  1  1  1  1  1  2  2  2  3  3  3  4  4  4  1  2
TYPE ASSIGNMENTS      3  4  5  6  7  8  9 10  1  1  1  1  1  1  1  1  1  2  2  2
TYPE ASSIGNMENTS      3  3  3  4  4  4  1  2  3  4  5  6  7  8  9 10  1  1  1  1
TYPE ASSIGNMENTS      1  1  1  1  1  2  2  2  3  3  3  4  4  4  1  2  3  4  5  6
TYPE ASSIGNMENTS      7  8  9 10  1  1  1  1  1  1  1  1  1  2  2  2  3  3  3  4
TYPE ASSIGNMENTS      4  4  1  2  3  4  5  6  7  8  9 10  1  1  1  1  1  1  1  1
TYPE ASSIGNMENTS      1  2  2  2  3  3  3  4  4  4  1  2  3  4  5  6  7  8  9 10
TYPE ASSIGNMENTS      1  1  1  1  1  1  1  1  1  2  2  2  3  3  3  4  4  4  1  2
TYPE ASSIGNMENTS      3  4  5  6  7  8  9 10  1  1  1  1  1  1  1  1  1  2  2  2
TYPE ASSIGNMENTS      3  3  3  4  4  4  1  2  3  4  5  6  7  8  9 10  1  1  1  1
TYPE ASSIGNMENTS      1  1  1  1  1  2  2  2  3  3  3  4  4  4  1  2  3  4  5  6
TYPE ASSIGNMENTS      7  8  9 10  1  1  1  1  1  1  1  1  1  2  2  2  3  3  3  4
TYPE ASSIGNMENTS      4  4  1  2  3  4  5  6  7  8  9 10  1  1  1  1  1  1  1  1
TYPE ASSIGNMENTS      1  2  2  2  3  3  3  4  4  4  1  2  3  4  5  6  7  8  9 10
TYPE ASSIGNMENTS      1  1  1  1  1  1  1  1  1  2  2  2  3  3  3  4  4  4  1  2
TYPE ASSIGNMENTS      3  4  5  6  7  8  9 10  1  1  1  1  1  1  1  1  1  2  2  2
TYPE ASSIGNMENTS      3  3  3  4  4  4  1  2  3  4  5  6  7  8  9 10  1  1  1  1
TYPE ASSIGNMENTS      1  1  1  1  1  2  2  2  3  3  3  4  4  4  1  2  3  4  5  6
TYPE ASSIGNMENTS      7  8  9 10  1  1  1  1  1  1  1  1  1  1  1  1  1  1  1  1
TYPE ASSIGNMENTS      1  1  1  1  1  1  1  1  1  1  1  1  1  1  1  1  1  1  1  1
TYPE ASSIGNMENTS      1  1  1  1  1  1  1  1  1  1  1  1  1  2  2  2  3  3  3  4
TYPE ASSIGNMENTS      4  4  1  2  3  4  5  6  7  8  9 10  1  1  1  1  1  1  1  1
TYPE ASSIGNMENTS      1  2  2  2  3  3  3  4  4  4  1  2  3  4  5  6  7  8  9 10
EXPONENTS  0.3047525D+04 0.4573695D+03 0.1039487D+03 0.2921016D+02 0.9286663D+01
EXPONENTS  0.3163927D+01 0.7868272D+01 0.1881289D+01 0.5442493D+00 0.7868272D+01
EXPONENTS  0.1881289D+01 0.5442493D+00 0.7868272D+01 0.1881289D+01 0.5442493D+00
EXPONENTS  0.7868272D+01 0.1881289D+01 0.5442493D+00 0.1687145D+00 0.1687145D+00
EXPONENTS  0.1687145D+00 0.1687145D+00 0.8000000D+00 0.8000000D+00 0.8000000D+00
EXPONENTS  0.8000000D+00 0.8000000D+00 0.8000000D+00 0.3047525D+04 0.4573695D+03
EXPONENTS  0.1039487D+03 0.2921016D+02 0.9286663D+01 0.3163927D+01 0.7868272D+01
EXPONENTS  0.1881289D+01 0.5442493D+00 0.7868272D+01 0.1881289D+01 0.5442493D+00
EXPONENTS  0.7868272D+01 0.1881289D+01 0.5442493D+00 0.7868272D+01 0.1881289D+01
EXPONENTS  0.5442493D+00 0.1687145D+00 0.1687145D+00 0.1687145D+00 0.1687145D+00
EXPONENTS  0.8000000D+00 0.8000000D+00 0.8000000D+00 0.8000000D+00 0.8000000D+00
EXPONENTS  0.8000000D+00 0.3047525D+04 0.4573695D+03 0.1039487D+03 0.2921016D+02
EXPONENTS  0.9286663D+01 0.3163927D+01 0.7868272D+01 0.1881289D+01 0.5442493D+00
EXPONENTS  0.7868272D+01 0.1881289D+01 0.5442493D+00 0.7868272D+01 0.1881289D+01
EXPONENTS  0.5442493D+00 0.7868272D+01 0.1881289D+01 0.5442493D+00 0.1687145D+00
EXPONENTS  0.1687145D+00 0.1687145D+00 0.1687145D+00 0.8000000D+00 0.8000000D+00
EXPONENTS  0.8000000D+00 0.8000000D+00 0.8000000D+00 0.8000000D+00 0.3047525D+04
EXPONENTS  0.4573695D+03 0.1039487D+03 0.2921016D+02 0.9286663D+01 0.3163927D+01
EXPONENTS  0.7868272D+01 0.1881289D+01 0.5442493D+00 0.7868272D+01 0.1881289D+01
EXPONENTS  0.5442493D+00 0.7868272D+01 0.1881289D+01 0.5442493D+00 0.7868272D+01
EXPONENTS  0.1881289D+01 0.5442493D+00 0.1687145D+00 0.1687145D+00 0.1687145D+00
EXPONENTS  0.1687145D+00 0.8000000D+00 0.8000000D+00 0.8000000D+00 0.8000000D+00
EXPONENTS  0.8000000D+00 0.8000000D+00 0.3047525D+04 0.4573695D+03 0.1039487D+03
EXPONENTS  0.2921016D+02 0.9286663D+01 0.3163927D+01 0.7868272D+01 0.1881289D+01
EXPONENTS  0.5442493D+00 0.7868272D+01 0.1881289D+01 0.5442493D+00 0.7868272D+01
EXPONENTS  0.1881289D+01 0.5442493D+00 0.7868272D+01 0.1881289D+01 0.5442493D+00
EXPONENTS  0.1687145D+00 0.1687145D+00 0.1687145D+00 0.1687145D+00 0.8000000D+00
EXPONENTS  0.8000000D+00 0.8000000D+00 0.8000000D+00 0.8000000D+00 0.8000000D+00
EXPONENTS  0.3047525D+04 0.4573695D+03 0.1039487D+03 0.2921016D+02 0.9286663D+01
EXPONENTS  0.3163927D+01 0.7868272D+01 0.1881289D+01 0.5442493D+00 0.7868272D+01
EXPONENTS  0.1881289D+01 0.5442493D+00 0.7868272D+01 0.1881289D+01 0.5442493D+00
EXPONENTS  0.7868272D+01 0.1881289D+01 0.5442493D+00 0.1687145D+00 0.1687145D+00
EXPONENTS  0.1687145D+00 0.1687145D+00 0.8000000D+00 0.8000000D+00 0.8000000D+00
EXPONENTS  0.8000000D+00 0.8000000D+00 0.8000000D+00 0.3047525D+04 0.4573695D+03
EXPONENTS  0.1039487D+03 0.2921016D+02 0.9286663D+01 0.3163927D+01 0.7868272D+01
EXPONENTS  0.1881289D+01 0.5442493D+00 0.7868272D+01 0.1881289D+01 0.5442493D+00
EXPONENTS  0.7868272D+01 0.1881289D+01 0.5442493D+00 0.7868272D+01 0.1881289D+01
EXPONENTS  0.5442493D+00 0.1687145D+00 0.1687145D+00 0.1687145D+00 0.1687145D+00
EXPONENTS  0.8000000D+00 0.8000000D+00 0.8000000D+00 0.8000000D+00 0.8000000D+00
EXPONENTS  0.8000000D+00 0.3047525D+04 0.4573695D+03 0.1039487D+03 0.2921016D+02
EXPONENTS  0.9286663D+01 0.3163927D+01 0.7868272D+01 0.1881289D+01 0.5442493D+00
EXPONENTS  0.7868272D+01 0.1881289D+01 0.5442493D+00 0.7868272D+01 0.1881289D+01
EXPONENTS  0.5442493D+00 0.7868272D+01 0.1881289D+01 0.5442493D+00 0.1687145D+00
EXPONENTS  0.1687145D+00 0.1687145D+00 0.1687145D+00 0.8000000D+00 0.8000000D+00
EXPONENTS  0.8000000D+00 0.8000000D+00 0.8000000D+00 0.8000000D+00 0.3047525D+04
EXPONENTS  0.4573695D+03 0.1039487D+03 0.2921016D+02 0.9286663D+01 0.3163927D+01
EXPONENTS  0.7868272D+01 0.1881289D+01 0.5442493D+00 0.7868272D+01 0.1881289D+01
EXPONENTS  0.5442493D+00 0.7868272D+01 0.1881289D+01 0.5442493D+00 0.7868272D+01
EXPONENTS  0.1881289D+01 0.5442493D+00 0.1687145D+00 0.1687145D+00 0.1687145D+00
EXPONENTS  0.1687145D+00 0.8000000D+00 0.8000000D+00 0.8000000D+00 0.8000000D+00
EXPONENTS  0.8000000D+00 0.8000000D+00 0.3047525D+04 0.4573695D+03 0.1039487D+03
EXPONENTS  0.2921016D+02 0.9286663D+01 0.3163927D+01 0.7868272D+01 0.1881289D+01
EXPONENTS  0.5442493D+00 0.7868272D+01 0.1881289D+01 0.5442493D+00 0.7868272D+01
EXPONENTS  0.1881289D+01 0.5442493D+00 0.7868272D+01 0.1881289D+01 0.5442493D+00
EXPONENTS  0.1687145D+00 0.1687145D+00 0.1687145D+00 0.1687145D+00 0.8000000D+00
EXPONENTS  0.8000000D+00 0.8000000D+00 0.8000000D+00 0.8000000D+00 0.8000000D+00
EXPONENTS  0.3047525D+04 0.4573695D+03 0.1039487D+03 0.2921016D+02 0.9286663D+01
EXPONENTS  0.3163927D+01 0.7868272D+01 0.1881289D+01 0.5442493D+00 0.7868272D+01
EXPONENTS  0.1881289D+01 0.5442493D+00 0.7868272D+01 0.1881289D+01 0.5442493D+00
EXPONENTS  0.7868272D+01 0.1881289D+01 0.5442493D+00 0.1687145D+00 0.1687145D+00
EXPONENTS  0.1687145D+00 0.1687145D+00 0.8000000D+00 0.8000000D+00 0.8000000D+00
EXPONENTS  0.8000000D+00 0.8000000D+00 0.8000000D+00 0.3047525D+04 0.4573695D+03
EXPONENTS  0.1039487D+03 0.2921016D+02 0.9286663D+01 0.3163927D+01 0.7868272D+01
EXPONENTS  0.1881289D+01 0.5442493D+00 0.7868272D+01 0.1881289D+01 0.5442493D+00
EXPONENTS  0.7868272D+01 0.1881289D+01 0.5442493D+00 0.7868272D+01 0.1881289D+01
EXPONENTS  0.5442493D+00 0.1687145D+00 0.1687145D+00 0.1687145D+00 0.1687145D+00
EXPONENTS  0.8000000D+00 0.8000000D+00 0.8000000D+00 0.8000000D+00 0.8000000D+00
EXPONENTS  0.8000000D+00 0.3047525D+04 0.4573695D+03 0.1039487D+03 0.2921016D+02
EXPONENTS  0.9286663D+01 0.3163927D+01 0.7868272D+01 0.1881289D+01 0.5442493D+00
EXPONENTS  0.7868272D+01 0.1881289D+01 0.5442493D+00 0.7868272D+01 0.1881289D+01
EXPONENTS  0.5442493D+00 0.7868272D+01 0.1881289D+01 0.5442493D+00 0.1687145D+00
EXPONENTS  0.1687145D+00 0.1687145D+00 0.1687145D+00 0.8000000D+00 0.8000000D+00
EXPONENTS  0.8000000D+00 0.8000000D+00 0.8000000D+00 0.8000000D+00 0.3047525D+04
EXPONENTS  0.4573695D+03 0.1039487D+03 0.2921016D+02 0.9286663D+01 0.3163927D+01
EXPONENTS  0.7868272D+01 0.1881289D+01 0.5442493D+00 0.7868272D+01 0.1881289D+01
EXPONENTS  0.5442493D+00 0.7868272D+01 0.1881289D+01 0.5442493D+00 0.7868272D+01
EXPONENTS  0.1881289D+01 0.5442493D+00 0.1687145D+00 0.1687145D+00 0.1687145D+00
EXPONENTS  0.1687145D+00 0.8000000D+00 0.8000000D+00 0.8000000D+00 0.8000000D+00
EXPONENTS  0.8000000D+00 0.8000000D+00 0.3047525D+04 0.4573695D+03 0.1039487D+03
EXPONENTS  0.2921016D+02 0.9286663D+01 0.3163927D+01 0.7868272D+01 0.1881289D+01
EXPONENTS  0.5442493D+00 0.7868272D+01 0.1881289D+01 0.5442493D+00 0.7868272D+01
EXPONENTS  0.1881289D+01 0.5442493D+00 0.7868272D+01 0.1881289D+01 0.5442493D+00
EXPONENTS  0.1687145D+00 0.1687145D+00 0.1687145D+00 0.1687145D+00 0.8000000D+00
EXPONENTS  0.8000000D+00 0.8000000D+00 0.8000000D+00 0.8000000D+00 0.8000000D+00
EXPONENTS  0.3047525D+04 0.4573695D+03 0.1039487D+03 0.2921016D+02 0.9286663D+01
EXPONENTS  0.3163927D+01 0.7868272D+01 0.1881289D+01 0.5442493D+00 0.7868272D+01
EXPONENTS  0.1881289D+01 0.5442493D+00 0.7868272D+01 0.1881289D+01 0.5442493D+00
EXPONENTS  0.7868272D+01 0.1881289D+01 0.5442493D+00 0.1687145D+00 0.1687145D+00
EXPONENTS  0.1687145D+00 0.1687145D+00 0.8000000D+00 0.8000000D+00 0.8000000D+00
EXPONENTS  0.8000000D+00 0.8000000D+00 0.8000000D+00 0.3047525D+04 0.4573695D+03
EXPONENTS  0.1039487D+03 0.2921016D+02 0.9286663D+01 0.3163927D+01 0.7868272D+01
EXPONENTS  0.1881289D+01 0.5442493D+00 0.7868272D+01 0.1881289D+01 0.5442493D+00
EXPONENTS  0.7868272D+01 0.1881289D+01 0.5442493D+00 0.7868272D+01 0.1881289D+01
EXPONENTS  0.5442493D+00 0.1687145D+00 0.1687145D+00 0.1687145D+00 0.1687145D+00
EXPONENTS  0.8000000D+00 0.8000000D+00 0.8000000D+00 0.8000000D+00 0.8000000D+00
EXPONENTS  0.8000000D+00 0.3047525D+04 0.4573695D+03 0.1039487D+03 0.2921016D+02
EXPONENTS  0.9286663D+01 0.3163927D+01 0.7868272D+01 0.1881289D+01 0.5442493D+00
EXPONENTS  0.7868272D+01 0.1881289D+01 0.5442493D+00 0.7868272D+01 0.1881289D+01
EXPONENTS  0.5442493D+00 0.7868272D+01 0.1881289D+01 0.5442493D+00 0.1687145D+00
EXPONENTS  0.1687145D+00 0.1687145D+00 0.1687145D+00 0.8000000D+00 0.8000000D+00
EXPONENTS  0.8000000D+00 0.8000000D+00 0.8000000D+00 0.8000000D+00 0.1873114D+02
EXPONENTS  0.2825394D+01 0.6401217D+00 0.1612778D+00 0.1873114D+02 0.2825394D+01
EXPONENTS  0.6401217D+00 0.1612778D+00 0.1873114D+02 0.2825394D+01 0.6401217D+00
EXPONENTS  0.1612778D+00 0.1873114D+02 0.2825394D+01 0.6401217D+00 0.1612778D+00
EXPONENTS  0.1873114D+02 0.2825394D+01 0.6401217D+00 0.1612778D+00 0.1873114D+02
EXPONENTS  0.2825394D+01 0.6401217D+00 0.1612778D+00 0.1873114D+02 0.2825394D+01
EXPONENTS  0.6401217D+00 0.1612778D+00 0.1873114D+02 0.2825394D+01 0.6401217D+00
EXPONENTS  0.1612778D+00 0.1873114D+02 0.2825394D+01 0.6401217D+00 0.1612778D+00
EXPONENTS  0.1873114D+02 0.2825394D+01 0.6401217D+00 0.1612778D+00 0.7001713D+04
EXPONENTS  0.1051366D+04 0.2392857D+03 0.6739745D+02 0.2151996D+02 0.7403101D+01
EXPONENTS  0.2084795D+02 0.4808308D+01 0.1344070D+01 0.2084795D+02 0.4808308D+01
EXPONENTS  0.1344070D+01 0.2084795D+02 0.4808308D+01 0.1344070D+01 0.2084795D+02
EXPONENTS  0.4808308D+01 0.1344070D+01 0.3581514D+00 0.3581514D+00 0.3581514D+00
EXPONENTS  0.3581514D+00 0.8000000D+00 0.8000000D+00 0.8000000D+00 0.8000000D+00
EXPONENTS  0.8000000D+00 0.8000000D+00 0.7001713D+04 0.1051366D+04 0.2392857D+03
EXPONENTS  0.6739745D+02 0.2151996D+02 0.7403101D+01 0.2084795D+02 0.4808308D+01
EXPONENTS  0.1344070D+01 0.2084795D+02 0.4808308D+01 0.1344070D+01 0.2084795D+02
EXPONENTS  0.4808308D+01 0.1344070D+01 0.2084795D+02 0.4808308D+01 0.1344070D+01
EXPONENTS  0.3581514D+00 0.3581514D+00 0.3581514D+00 0.3581514D+00 0.8000000D+00
EXPONENTS  0.8000000D+00 0.8000000D+00 0.8000000D+00 0.8000000D+00 0.8000000D+00
MO    1     MO 0.0        OCC NO =    2.0000000  ORB. ENERGY =  -24.700357
  0.79056432D-05  0.14584368D-04  0.23543692D-04  0.30646891D-04  0.26151048D-04
  0.90293284D-05  0.19740166D-04  0.90982244D-05 -0.25512371D-04 -0.55944492D-04
 -0.42894688D-04 -0.21407456D-04 -0.46670212D-04 -0.35783759D-04 -0.17858604D-04
 -0.27835669D-06 -0.21342625D-06 -0.10651466D-06 -0.15187367D-03  0.72737532D-04
  0.22874767D-03 -0.32707164D-03  0.65319330D-04  0.54170615D-04  0.12322664D-03
 -0.36214533D-04 -0.62961749D-04  0.79012637D-04  0.00000000D+00  0.00000000D+00
  0.00000000D+00  0.00000000D+00  0.00000000D+00  0.00000000D+00  0.00000000D+00
  0.00000000D+00  0.00000000D+00 -0.39038159D-04 -0.29931984D-04 -0.14938158D-04
 -0.41143671D-04 -0.31546357D-04 -0.15743843D-04  0.00000000D+00  0.00000000D+00
  0.00000000D+00  0.00000000D+00 -0.28931224D-04  0.44442026D-03  0.00000000D+00
  0.00000000D+00  0.00000000D+00  0.00000000D+00  0.00000000D+00  0.25587693D-04
 -0.36302492D-04 -0.79056432D-05 -0.14584368D-04 -0.23543692D-04 -0.30646891D-04
 -0.26151048D-04 -0.90293284D-05 -0.19740166D-04 -0.90982244D-05  0.25512371D-04
 -0.55944492D-04 -0.42894688D-04 -0.21407456D-04 -0.46670212D-04 -0.35783759D-04
 -0.17858604D-04  0.27835669D-06  0.21342625D-06  0.10651466D-06  0.15187367D-03
  0.72737532D-04  0.22874767D-03  0.32707164D-03 -0.65319330D-04 -0.54170615D-04
 -0.12322664D-03  0.36214533D-04 -0.62961749D-04  0.79012637D-04 -0.16867938D-05
 -0.31118053D-05 -0.50234185D-05 -0.65389983D-05 -0.55797391D-05 -0.19265498D-05
 -0.85562287D-06 -0.39435580D-06  0.11058148D-05  0.15175046D-04  0.11635263D-04
  0.58068115D-05  0.33862528D-04  0.25963639D-04  0.12957675D-04 -0.33412932D-05
 -0.25618917D-05 -0.12785635D-05  0.29464937D-04 -0.20871748D-04 -0.13447069D-03
  0.15272104D-03 -0.13068452D-04 -0.14556481D-04 -0.22523060D-04  0.13554847D-04
  0.23219988D-04 -0.19013474D-04 -0.32797101D-05 -0.60504247D-05 -0.97672615D-05
 -0.12714072D-04 -0.10848941D-04 -0.37458786D-05  0.17597760D-04  0.81107916D-05
 -0.22743506D-04  0.74615051D-05  0.57210088D-05  0.28551844D-05 -0.18388374D-04
 -0.14099039D-04 -0.70364087D-05  0.24360365D-05  0.18677982D-05  0.93216223D-06
  0.23017633D-03  0.24367335D-04 -0.67865338D-04 -0.32347094D-04 -0.87765270D-05
  0.41682746D-05  0.19101065D-04 -0.98091002D-05 -0.83505910D-05 -0.17746962D-04
  0.27093009D-05  0.49981312D-05  0.80685335D-05  0.10502833D-04  0.89620866D-05
  0.30943931D-05 -0.16337299D-04 -0.75298462D-05  0.21114475D-04 -0.10326278D-04
 -0.79175349D-05 -0.39514048D-05  0.11435007D-04  0.87676380D-05  0.43756658D-05
  0.20777494D-04  0.15930864D-04  0.79506177D-05 -0.11707082D-03  0.11562915D-04
  0.64522623D-04 -0.62842162D-04  0.83986890D-05 -0.12850923D-04 -0.23949202D-04
  0.85167453D-05  0.14025775D-04 -0.23456967D-04 -0.88561374D-05 -0.16337844D-04
 -0.26374346D-04 -0.34331562D-04 -0.29295184D-04 -0.10114923D-04  0.71629354D-04
  0.33013904D-04 -0.92574433D-04  0.59824885D-05  0.45869928D-05  0.22892309D-05
  0.53733252D-05  0.41199249D-05  0.20561313D-05  0.11527141D-04  0.88382806D-05
  0.44109215D-05  0.22375716D-03 -0.38452975D-04 -0.90192044D-04  0.97148519D-04
 -0.15848246D-04  0.10960080D-03  0.14236194D-04 -0.23911854D-04 -0.65998484D-04
 -0.25656692D-04  0.16867938D-05  0.31118053D-05  0.50234185D-05  0.65389983D-05
  0.55797391D-05  0.19265498D-05  0.85562287D-06  0.39435580D-06 -0.11058148D-05
  0.15175046D-04  0.11635263D-04  0.58068115D-05  0.33862528D-04  0.25963639D-04
  0.12957675D-04  0.33412932D-05  0.25618917D-05  0.12785635D-05 -0.29464937D-04
 -0.20871748D-04 -0.13447069D-03 -0.15272104D-03  0.13068452D-04  0.14556481D-04
  0.22523060D-04 -0.13554847D-04  0.23219988D-04 -0.19013474D-04  0.88561374D-05
  0.16337844D-04  0.26374346D-04  0.34331562D-04  0.29295184D-04  0.10114923D-04
 -0.71629354D-04 -0.33013904D-04  0.92574433D-04  0.59824885D-05  0.45869928D-05
  0.22892309D-05  0.53733252D-05  0.41199249D-05  0.20561313D-05 -0.11527141D-04
 -0.88382806D-05 -0.44109215D-05 -0.22375716D-03 -0.38452975D-04 -0.90192044D-04
 -0.97148519D-04  0.15848246D-04 -0.10960080D-03 -0.14236194D-04  0.23911854D-04
 -0.65998484D-04 -0.25656692D-04 -0.27093009D-05 -0.49981312D-05 -0.80685335D-05
 -0.10502833D-04 -0.89620866D-05 -0.30943931D-05  0.16337299D-04  0.75298462D-05
 -0.21114475D-04 -0.10326278D-04 -0.79175349D-05 -0.39514048D-05  0.11435007D-04
  0.87676380D-05  0.43756658D-05 -0.20777494D-04 -0.15930864D-04 -0.79506177D-05
  0.11707082D-03  0.11562915D-04  0.64522623D-04  0.62842162D-04 -0.83986890D-05
  0.12850923D-04  0.23949202D-04 -0.85167453D-05  0.14025775D-04 -0.23456967D-04
  0.32797101D-05  0.60504247D-05  0.97672615D-05  0.12714072D-04  0.10848941D-04
  0.37458786D-05 -0.17597760D-04 -0.81107916D-05  0.22743506D-04  0.74615051D-05
  0.57210088D-05  0.28551844D-05 -0.18388374D-04 -0.14099039D-04 -0.70364087D-05
 -0.24360365D-05 -0.18677982D-05 -0.93216223D-06 -0.23017633D-03  0.24367335D-04
 -0.67865338D-04  0.32347094D-04  0.87765270D-05 -0.41682746D-05 -0.19101065D-04
  0.98091002D-05 -0.83505910D-05 -0.17746962D-04  0.00000000D+00  0.00000000D+00
  0.00000000D+00  0.00000000D+00  0.00000000D+00  0.00000000D+00  0.00000000D+00
  0.00000000D+00  0.00000000D+00  0.13742858D-05  0.10537152D-05  0.52587774D-06
  0.14675585D-04  0.11252308D-04  0.56156901D-05  0.00000000D+00  0.00000000D+00
  0.00000000D+00  0.00000000D+00  0.35888035D-04 -0.19397275D-03  0.00000000D+00
  0.00000000D+00  0.00000000D+00  0.00000000D+00  0.00000000D+00  0.84350474D-05
  0.32012408D-04  0.28581496D-05  0.52727279D-05  0.85118177D-05  0.11079858D-04
  0.94544625D-05  0.32643987D-05 -0.12778272D-04 -0.58894939D-05  0.16514756D-04
  0.64890325D-06  0.49753785D-06  0.24830626D-06 -0.87805398D-05 -0.67323610D-05
 -0.33599200D-05  0.76733033D-05  0.58834023D-05  0.29362301D-05 -0.19572613D-03
  0.88024486D-05 -0.14313536D-04  0.79687282D-04  0.54354380D-05 -0.23058114D-05
 -0.10727428D-05  0.13813080D-04 -0.43063942D-05 -0.38005255D-06 -0.26009755D-05
 -0.47982919D-05 -0.77459309D-05 -0.10082901D-04 -0.86037573D-05 -0.29706706D-05
  0.11772116D-04  0.54257576D-05 -0.15214391D-04 -0.83315962D-05 -0.63881395D-05
 -0.31881293D-05 -0.20407841D-05 -0.15647438D-05 -0.78091681D-06 -0.16110979D-04
 -0.12352876D-04 -0.61649511D-05  0.19103922D-03 -0.17148115D-04  0.63936694D-04
 -0.56263198D-04 -0.69218497D-05  0.41321484D-06  0.66374995D-05 -0.72124210D-05
 -0.12926008D-04 -0.69532611D-05 -0.28581496D-05 -0.52727279D-05 -0.85118177D-05
 -0.11079858D-04 -0.94544625D-05 -0.32643987D-05  0.12778272D-04  0.58894939D-05
 -0.16514756D-04  0.64890325D-06  0.49753785D-06  0.24830626D-06 -0.87805398D-05
 -0.67323610D-05 -0.33599200D-05 -0.76733033D-05 -0.58834023D-05 -0.29362301D-05
  0.19572613D-03  0.88024486D-05 -0.14313536D-04 -0.79687282D-04 -0.54354380D-05
  0.23058114D-05  0.10727428D-05 -0.13813080D-04 -0.43063942D-05 -0.38005255D-06
  0.26009755D-05  0.47982919D-05  0.77459309D-05  0.10082901D-04  0.86037573D-05
  0.29706706D-05 -0.11772116D-04 -0.54257576D-05  0.15214391D-04 -0.83315962D-05
 -0.63881395D-05 -0.31881293D-05 -0.20407841D-05 -0.15647438D-05 -0.78091681D-06
  0.16110979D-04  0.12352876D-04  0.61649511D-05 -0.19103922D-03 -0.17148115D-04
  0.63936694D-04  0.56263198D-04  0.69218497D-05 -0.41321484D-06 -0.66374995D-05
  0.72124210D-05 -0.12926008D-04 -0.69532611D-05 -0.35136725D-04 -0.64820397D-04
 -0.10464022D-03 -0.13621047D-03 -0.11622864D-03 -0.40130957D-04  0.39767747D-04
  0.18328918D-04 -0.51396200D-04 -0.41182173D-03 -0.31575878D-03 -0.15758576D-03
  0.38461670D-03  0.29489969D-03  0.14717562D-03 -0.25326861D-03 -0.19419031D-03
 -0.96914574D-04  0.48782929D-03  0.12546544D-03 -0.10234774D-03  0.98127684D-04
 -0.47799910D-04  0.16392781D-03  0.48085262D-04 -0.37539311D-03  0.34371706D-03
 -0.30158498D-03  0.35136725D-04  0.64820397D-04  0.10464022D-03  0.13621047D-03
  0.11622864D-03  0.40130957D-04 -0.39767747D-04 -0.18328918D-04  0.51396200D-04
 -0.41182173D-03 -0.31575878D-03 -0.15758576D-03  0.38461670D-03  0.29489969D-03
  0.14717562D-03  0.25326861D-03  0.19419031D-03  0.96914574D-04 -0.48782929D-03
  0.12546544D-03 -0.10234774D-03 -0.98127684D-04  0.47799910D-04 -0.16392781D-03
 -0.48085262D-04  0.37539311D-03  0.34371706D-03 -0.30158498D-03  0.15166176D-06
  0.25724705D-06  0.29286667D-06  0.18390875D-04 -0.69431431D-05 -0.11776885D-04
 -0.13407567D-04 -0.26347381D-04 -0.67606322D-05 -0.11467312D-04 -0.13055129D-04
  0.43175878D-04  0.67606322D-05  0.11467312D-04  0.13055129D-04 -0.43175878D-04
  0.69431431D-05  0.11776885D-04  0.13407567D-04  0.26347381D-04 -0.15166176D-06
 -0.25724705D-06 -0.29286667D-06 -0.18390875D-04 -0.19457923D-05 -0.33004320D-05
 -0.37574252D-05 -0.20283692D-04  0.30297134D-05  0.51389673D-05  0.58505326D-05
  0.23083357D-04  0.19457923D-05  0.33004320D-05  0.37574252D-05  0.20283692D-04
 -0.30297134D-05 -0.51389673D-05 -0.58505326D-05 -0.23083357D-04  0.69694404D+00
  0.12857220D+01  0.20825343D+01  0.27447280D+01  0.23562057D+01  0.80090113D+00
 -0.10326491D-01 -0.46385909D-02  0.13743206D-01  0.91653644D-03  0.70743965D-03
  0.30031730D-03 -0.19174684D-02 -0.14800210D-02 -0.62828810D-03  0.11942706D-02
  0.92181206D-03  0.39132116D-03  0.37206839D-02 -0.32024767D-04  0.15068077D-03
 -0.79828279D-04 -0.65619534D-02 -0.67088930D-02 -0.66364074D-02  0.39982239D-03
 -0.18370420D-03  0.30420313D-03 -0.69694404D+00 -0.12857220D+01 -0.20825343D+01
 -0.27447280D+01 -0.23562057D+01 -0.80090113D+00  0.10326491D-01  0.46385909D-02
 -0.13743206D-01  0.91653644D-03  0.70743965D-03  0.30031730D-03 -0.19174684D-02
 -0.14800210D-02 -0.62828810D-03 -0.11942706D-02 -0.92181206D-03 -0.39132116D-03
 -0.37206839D-02 -0.32024767D-04  0.15068077D-03  0.79828279D-04  0.65619534D-02
  0.67088930D-02  0.66364074D-02 -0.39982239D-03 -0.18370420D-03  0.30420313D-03
MO    2     MO 0.0        OCC NO =    2.0000000  ORB. ENERGY =  -24.700355
  0.12849702D-04  0.23705192D-04  0.38267530D-04  0.49812954D-04  0.42505483D-04
  0.14676122D-04 -0.62674778D-04 -0.28886748D-04  0.81001456D-04 -0.27037333D-04
 -0.20730512D-04 -0.10345978D-04 -0.22972581D-04 -0.17613918D-04 -0.87905796D-05
 -0.56190117D-04 -0.43083018D-04 -0.21501445D-04 -0.19523947D-03 -0.29809933D-04
 -0.63419049D-04  0.13181941D-03  0.41662164D-04  0.16775211D-04 -0.40823819D-04
  0.18766893D-04  0.12812381D-03  0.20612041D-04  0.62728611D-05  0.11572204D-04
  0.18681125D-04  0.24317274D-04  0.20749974D-04  0.71644675D-05  0.96415310D-06
  0.44437728D-06 -0.12460803D-05  0.00000000D+00  0.00000000D+00  0.00000000D+00
  0.00000000D+00  0.00000000D+00  0.00000000D+00 -0.48178929D-04 -0.36940547D-04
 -0.18435922D-04 -0.97772206D-04  0.00000000D+00  0.00000000D+00  0.10191350D-04
  0.47302619D-04  0.20435899D-05  0.94524152D-04  0.16513900D-04  0.00000000D+00
  0.00000000D+00  0.12849702D-04  0.23705192D-04  0.38267530D-04  0.49812954D-04
  0.42505483D-04  0.14676122D-04 -0.62674778D-04 -0.28886748D-04  0.81001456D-04
  0.27037333D-04  0.20730512D-04  0.10345978D-04  0.22972581D-04  0.17613918D-04
  0.87905796D-05 -0.56190117D-04 -0.43083018D-04 -0.21501445D-04 -0.19523947D-03
  0.29809933D-04  0.63419049D-04  0.13181941D-03  0.41662164D-04  0.16775211D-04
 -0.40823819D-04  0.18766893D-04 -0.12812381D-03 -0.20612041D-04 -0.59752520D-06
 -0.11023173D-05 -0.17794819D-05 -0.23163567D-05 -0.19765514D-05 -0.68245570D-06
  0.92294446D-06  0.42538426D-06 -0.11928219D-05  0.41605767D-05  0.31900663D-05
  0.15920667D-05 -0.58091297D-05 -0.44540722D-05 -0.22228942D-05  0.21612749D-04
  0.16571285D-04  0.82702327D-05  0.16247794D-04  0.85753062D-05  0.29406597D-04
 -0.84497723D-04 -0.60143894D-05  0.43444329D-05 -0.44950699D-05 -0.50811607D-06
  0.37752025D-05  0.11105228D-04  0.16370589D-05  0.30200540D-05  0.48753036D-05
  0.63461967D-05  0.54152211D-05  0.18697457D-05 -0.86594954D-05 -0.39911535D-05
  0.11191611D-04  0.51337536D-05  0.39362367D-05  0.19644580D-05  0.84286867D-05
  0.64625824D-05  0.32252815D-05 -0.67565396D-05 -0.51804860D-05 -0.25854256D-05
 -0.59386876D-04 -0.92218146D-05  0.33752366D-04  0.72046014D-05  0.55271749D-05
 -0.12011672D-04  0.10881057D-05  0.48279485D-05  0.76362076D-05  0.60571236D-05
  0.21037544D-05  0.38810160D-05  0.62651632D-05  0.81553809D-05  0.69590013D-05
  0.24027759D-05 -0.25547826D-05 -0.11774970D-05  0.33018245D-05  0.53110852D-05
  0.40722033D-05  0.20323148D-05 -0.17797396D-04 -0.13645915D-04 -0.68102678D-05
  0.70322126D-06  0.53918546D-06  0.26909133D-06  0.36437654D-04  0.57285465D-05
 -0.85613551D-05 -0.60668066D-05  0.14536966D-04  0.11180587D-04  0.19016881D-04
 -0.84812744D-05 -0.14665032D-04  0.22603814D-04 -0.46112367D-05 -0.85068314D-05
 -0.13732663D-04 -0.17875848D-04 -0.15253493D-04 -0.52666646D-05 -0.23797711D-04
 -0.10968343D-04  0.30756379D-04  0.36341244D-05  0.27864161D-05  0.13906169D-05
  0.56575876D-05  0.43378793D-05  0.21649058D-05 -0.40372401D-05 -0.30954997D-05
 -0.15448713D-05  0.68528719D-04  0.17727488D-04 -0.46360584D-04 -0.39170348D-04