 hstep8 radius 4.50000000000000
GAUSSIAN             80 MOL ORBITALS    864 PRIMITIVES       48 NUCLEI  B3LYP
  O    1    (CENTRE  1)   0.00000000  0.00000000  0.00000000  CHARGE =  8.0
  H    2    (CENTRE  2)  -1.41578282  0.58657099 -0.96546108  CHARGE =  1.0
  H    3    (CENTRE  3)  -0.00340151  1.04275088  1.48456885  CHARGE =  1.0
  O    4    (CENTRE  4)   1.19090541  2.93398879  4.21635695  CHARGE =  8.0
  H    5    (CENTRE  5)   2.49727308  3.50638684  3.09971778  CHARGE =  1.0
  H    6    (CENTRE  6)   1.76027989  1.31109199  4.78459760  CHARGE =  1.0
  O    7    (CENTRE  7)   4.08925397 -2.20171992 -2.82910899  CHARGE =  8.0
  H    8    (CENTRE  8)   4.81809110 -3.19269230 -1.49968666  CHARGE =  1.0
  H    9    (CENTRE  9)   2.83005386 -1.19411794 -2.00424354  CHARGE =  1.0
  O   10    (CENTRE 10)  -4.29137908  3.22443970 -1.59398399  CHARGE =  8.0
  H   11    (CENTRE 11)  -4.43915566  3.56024403 -3.36786991  CHARGE =  1.0
  H   12    (CENTRE 12)  -4.01793570  4.85168287 -0.84659731  CHARGE =  1.0
  O   13    (CENTRE 13)  -3.66720253 -1.74383928  4.59449115  CHARGE =  8.0
  H   14    (CENTRE 14)  -4.07047009 -3.23615600  3.65038397  CHARGE =  1.0
  H   15    (CENTRE 15)  -4.30838661 -2.07246265  6.25631631  CHARGE =  1.0
  O   16    (CENTRE 16)   0.55765818 -5.50382736  3.18210984  CHARGE =  8.0
  H   17    (CENTRE 17)  -0.26475063 -4.02001440  2.54753980  CHARGE =  1.0
  H   18    (CENTRE 18)  -0.16686282 -5.75591683  4.82295904  CHARGE =  1.0
  O   19    (CENTRE 19)  -1.78805887 -0.69050593 -6.13726356  CHARGE =  8.0
  H   20    (CENTRE 20)  -0.02853486 -0.88458080 -5.74835792  CHARGE =  1.0
  H   21    (CENTRE 21)  -2.62293987 -1.86497072 -5.03460836  CHARGE =  1.0
  O   22    (CENTRE 22)   4.60352404  4.90516212  0.45391222  CHARGE =  8.0
  H   23    (CENTRE 23)   5.68905832  3.45989958  0.57088626  CHARGE =  1.0
  H   24    (CENTRE 24)   5.54536354  6.24271028  1.23191247  CHARGE =  1.0
  O   25    (CENTRE 25)   2.70835549  4.53950012 -4.46825744  CHARGE =  8.0
  H   26    (CENTRE 26)   3.31408831  4.50491813 -2.76145680  CHARGE =  1.0
  H   27    (CENTRE 27)   0.91916279  4.77288129 -4.30876456  CHARGE =  1.0
  O   28    (CENTRE 28)   2.72517406 -2.08720251  6.49612255  CHARGE =  8.0
  H   29    (CENTRE 29)   1.75253202 -3.25864374  5.51478777  CHARGE =  1.0
  H   30    (CENTRE 30)   4.04344701 -3.09291476  7.22536787  CHARGE =  1.0
  O   31    (CENTRE 31)  -5.11057535 -5.33091742  1.10095445  CHARGE =  8.0
  H   32    (CENTRE 32)  -3.70745370 -6.21719898  0.37529961  CHARGE =  1.0
  H   33    (CENTRE 33)  -5.81109683 -4.38681024 -0.27722282  CHARGE =  1.0
  O   34    (CENTRE 34)  -7.01050601 -1.70623373 -1.92676477  CHARGE =  8.0
  H   35    (CENTRE 35)  -8.38395896 -2.08002155 -0.80634614  CHARGE =  1.0
  H   36    (CENTRE 36)  -6.21701000 -0.24944385 -1.19940918  CHARGE =  1.0
  O   37    (CENTRE 37)   7.76715235  1.36211460  1.15632342  CHARGE =  8.0
  H   38    (CENTRE 38)   7.26543006  0.02456644  2.27579718  CHARGE =  1.0
  H   39    (CENTRE 39)   9.57240773  1.23418014  1.08111232  CHARGE =  1.0
  O   40    (CENTRE 40)  -3.32289443  5.49078825  4.76702314  CHARGE =  8.0
  H   41    (CENTRE 41)  -3.66965918  6.51955516  3.31703628  CHARGE =  1.0
  H   42    (CENTRE 42)  -1.76141373  4.66252129  4.37112552  CHARGE =  1.0
  O   43    (CENTRE 43)   6.19072391 -5.35888537  0.50701352  CHARGE =  8.0
  H   44    (CENTRE 44)   5.02976122 -5.70980751  1.85249853  CHARGE =  1.0
  H   45    (CENTRE 45)   6.68881793 -6.99198669 -0.09807679  CHARGE =  1.0
  O   46    (CENTRE 46)   1.98194477 -6.95041272 -3.99544796  CHARGE =  8.0
  H   47    (CENTRE 47)   2.10439902 -7.28791780 -5.77103464  CHARGE =  1.0
  H   48    (CENTRE 48)   3.21047462 -5.65368264 -3.69554843  CHARGE =  1.0
CENTRE ASSIGNMENTS    1  1  1  1  1  1  1  1  1  1  1  1  1  1  1  1  1  1  1  1
CENTRE ASSIGNMENTS    1  1  1  1  1  1  1  1  1  1  1  1  1  1  1  1  2  2  2  2
CENTRE ASSIGNMENTS    2  2  2  2  2  3  3  3  3  3  3  3  3  3  4  4  4  4  4  4
CENTRE ASSIGNMENTS    4  4  4  4  4  4  4  4  4  4  4  4  4  4  4  4  4  4  4  4
CENTRE ASSIGNMENTS    4  4  4  4  4  4  4  4  4  4  5  5  5  5  5  5  5  5  5  6
CENTRE ASSIGNMENTS    6  6  6  6  6  6  6  6  7  7  7  7  7  7  7  7  7  7  7  7
CENTRE ASSIGNMENTS    7  7  7  7  7  7  7  7  7  7  7  7  7  7  7  7  7  7  7  7
CENTRE ASSIGNMENTS    7  7  7  7  8  8  8  8  8  8  8  8  8  9  9  9  9  9  9  9
CENTRE ASSIGNMENTS    9  9 10 10 10 10 10 10 10 10 10 10 10 10 10 10 10 10 10 10
CENTRE ASSIGNMENTS   10 10 10 10 10 10 10 10 10 10 10 10 10 10 10 10 10 10 11 11
CENTRE ASSIGNMENTS   11 11 11 11 11 11 11 12 12 12 12 12 12 12 12 12 13 13 13 13
CENTRE ASSIGNMENTS   13 13 13 13 13 13 13 13 13 13 13 13 13 13 13 13 13 13 13 13
CENTRE ASSIGNMENTS   13 13 13 13 13 13 13 13 13 13 13 13 14 14 14 14 14 14 14 14
CENTRE ASSIGNMENTS   14 15 15 15 15 15 15 15 15 15 16 16 16 16 16 16 16 16 16 16
CENTRE ASSIGNMENTS   16 16 16 16 16 16 16 16 16 16 16 16 16 16 16 16 16 16 16 16
CENTRE ASSIGNMENTS   16 16 16 16 16 16 17 17 17 17 17 17 17 17 17 18 18 18 18 18
CENTRE ASSIGNMENTS   18 18 18 18 19 19 19 19 19 19 19 19 19 19 19 19 19 19 19 19
CENTRE ASSIGNMENTS   19 19 19 19 19 19 19 19 19 19 19 19 19 19 19 19 19 19 19 19
CENTRE ASSIGNMENTS   20 20 20 20 20 20 20 20 20 21 21 21 21 21 21 21 21 21 22 22
CENTRE ASSIGNMENTS   22 22 22 22 22 22 22 22 22 22 22 22 22 22 22 22 22 22 22 22
CENTRE ASSIGNMENTS   22 22 22 22 22 22 22 22 22 22 22 22 22 22 23 23 23 23 23 23
CENTRE ASSIGNMENTS   23 23 23 24 24 24 24 24 24 24 24 24 25 25 25 25 25 25 25 25
CENTRE ASSIGNMENTS   25 25 25 25 25 25 25 25 25 25 25 25 25 25 25 25 25 25 25 25
CENTRE ASSIGNMENTS   25 25 25 25 25 25 25 25 26 26 26 26 26 26 26 26 26 27 27 27
CENTRE ASSIGNMENTS   27 27 27 27 27 27 28 28 28 28 28 28 28 28 28 28 28 28 28 28
CENTRE ASSIGNMENTS   28 28 28 28 28 28 28 28 28 28 28 28 28 28 28 28 28 28 28 28
CENTRE ASSIGNMENTS   28 28 29 29 29 29 29 29 29 29 29 30 30 30 30 30 30 30 30 30
CENTRE ASSIGNMENTS   31 31 31 31 31 31 31 31 31 31 31 31 31 31 31 31 31 31 31 31
CENTRE ASSIGNMENTS   31 31 31 31 31 31 31 31 31 31 31 31 31 31 31 31 32 32 32 32
CENTRE ASSIGNMENTS   32 32 32 32 32 33 33 33 33 33 33 33 33 33 34 34 34 34 34 34
CENTRE ASSIGNMENTS   34 34 34 34 34 34 34 34 34 34 34 34 34 34 34 34 34 34 34 34
CENTRE ASSIGNMENTS   34 34 34 34 34 34 34 34 34 34 35 35 35 35 35 35 35 35 35 36
CENTRE ASSIGNMENTS   36 36 36 36 36 36 36 36 37 37 37 37 37 37 37 37 37 37 37 37
CENTRE ASSIGNMENTS   37 37 37 37 37 37 37 37 37 37 37 37 37 37 37 37 37 37 37 37
CENTRE ASSIGNMENTS   37 37 37 37 38 38 38 38 38 38 38 38 38 39 39 39 39 39 39 39
CENTRE ASSIGNMENTS   39 39 40 40 40 40 40 40 40 40 40 40 40 40 40 40 40 40 40 40
CENTRE ASSIGNMENTS   40 40 40 40 40 40 40 40 40 40 40 40 40 40 40 40 40 40 41 41
CENTRE ASSIGNMENTS   41 41 41 41 41 41 41 42 42 42 42 42 42 42 42 42 43 43 43 43
CENTRE ASSIGNMENTS   43 43 43 43 43 43 43 43 43 43 43 43 43 43 43 43 43 43 43 43
CENTRE ASSIGNMENTS   43 43 43 43 43 43 43 43 43 43 43 43 44 44 44 44 44 44 44 44
CENTRE ASSIGNMENTS   44 45 45 45 45 45 45 45 45 45 46 46 46 46 46 46 46 46 46 46
CENTRE ASSIGNMENTS   46 46 46 46 46 46 46 46 46 46 46 46 46 46 46 46 46 46 46 46
CENTRE ASSIGNMENTS   46 46 46 46 46 46 47 47 47 47 47 47 47 47 47 48 48 48 48 48
CENTRE ASSIGNMENTS   48 48 48 48
TYPE ASSIGNMENTS      1  1  1  1  1  1  1  1  1  2  2  2  3  3  3  4  4  4  1  2
TYPE ASSIGNMENTS      3  4  1  2  3  4  1  2  3  4  5  6  7  8  9 10  1  1  1  1
TYPE ASSIGNMENTS      1  1  2  3  4  1  1  1  1  1  1  2  3  4  1  1  1  1  1  1
TYPE ASSIGNMENTS      1  1  1  2  2  2  3  3  3  4  4  4  1  2  3  4  1  2  3  4
TYPE ASSIGNMENTS      1  2  3  4  5  6  7  8  9 10  1  1  1  1  1  1  2  3  4  1
TYPE ASSIGNMENTS      1  1  1  1  1  2  3  4  1  1  1  1  1  1  1  1  1  2  2  2
TYPE ASSIGNMENTS      3  3  3  4  4  4  1  2  3  4  1  2  3  4  1  2  3  4  5  6
TYPE ASSIGNMENTS      7  8  9 10  1  1  1  1  1  1  2  3  4  1  1  1  1  1  1  2
TYPE ASSIGNMENTS      3  4  1  1  1  1  1  1  1  1  1  2  2  2  3  3  3  4  4  4
TYPE ASSIGNMENTS      1  2  3  4  1  2  3  4  1  2  3  4  5  6  7  8  9 10  1  1
TYPE ASSIGNMENTS      1  1  1  1  2  3  4  1  1  1  1  1  1  2  3  4  1  1  1  1
TYPE ASSIGNMENTS      1  1  1  1  1  2  2  2  3  3  3  4  4  4  1  2  3  4  1  2
TYPE ASSIGNMENTS      3  4  1  2  3  4  5  6  7  8  9 10  1  1  1  1  1  1  2  3
TYPE ASSIGNMENTS      4  1  1  1  1  1  1  2  3  4  1  1  1  1  1  1  1  1  1  2
TYPE ASSIGNMENTS      2  2  3  3  3  4  4  4  1  2  3  4  1  2  3  4  1  2  3  4
TYPE ASSIGNMENTS      5  6  7  8  9 10  1  1  1  1  1  1  2  3  4  1  1  1  1  1
TYPE ASSIGNMENTS      1  2  3  4  1  1  1  1  1  1  1  1  1  2  2  2  3  3  3  4
TYPE ASSIGNMENTS      4  4  1  2  3  4  1  2  3  4  1  2  3  4  5  6  7  8  9 10
TYPE ASSIGNMENTS      1  1  1  1  1  1  2  3  4  1  1  1  1  1  1  2  3  4  1  1
TYPE ASSIGNMENTS      1  1  1  1  1  1  1  2  2  2  3  3  3  4  4  4  1  2  3  4
TYPE ASSIGNMENTS      1  2  3  4  1  2  3  4  5  6  7  8  9 10  1  1  1  1  1  1
TYPE ASSIGNMENTS      2  3  4  1  1  1  1  1  1  2  3  4  1  1  1  1  1  1  1  1
TYPE ASSIGNMENTS      1  2  2  2  3  3  3  4  4  4  1  2  3  4  1  2  3  4  1  2
TYPE ASSIGNMENTS      3  4  5  6  7  8  9 10  1  1  1  1  1  1  2  3  4  1  1  1
TYPE ASSIGNMENTS      1  1  1  2  3  4  1  1  1  1  1  1  1  1  1  2  2  2  3  3
TYPE ASSIGNMENTS      3  4  4  4  1  2  3  4  1  2  3  4  1  2  3  4  5  6  7  8
TYPE ASSIGNMENTS      9 10  1  1  1  1  1  1  2  3  4  1  1  1  1  1  1  2  3  4
TYPE ASSIGNMENTS      1  1  1  1  1  1  1  1  1  2  2  2  3  3  3  4  4  4  1  2
TYPE ASSIGNMENTS      3  4  1  2  3  4  1  2  3  4  5  6  7  8  9 10  1  1  1  1
TYPE ASSIGNMENTS      1  1  2  3  4  1  1  1  1  1  1  2  3  4  1  1  1  1  1  1
TYPE ASSIGNMENTS      1  1  1  2  2  2  3  3  3  4  4  4  1  2  3  4  1  2  3  4
TYPE ASSIGNMENTS      1  2  3  4  5  6  7  8  9 10  1  1  1  1  1  1  2  3  4  1
TYPE ASSIGNMENTS      1  1  1  1  1  2  3  4  1  1  1  1  1  1  1  1  1  2  2  2
TYPE ASSIGNMENTS      3  3  3  4  4  4  1  2  3  4  1  2  3  4  1  2  3  4  5  6
TYPE ASSIGNMENTS      7  8  9 10  1  1  1  1  1  1  2  3  4  1  1  1  1  1  1  2
TYPE ASSIGNMENTS      3  4  1  1  1  1  1  1  1  1  1  2  2  2  3  3  3  4  4  4
TYPE ASSIGNMENTS      1  2  3  4  1  2  3  4  1  2  3  4  5  6  7  8  9 10  1  1
TYPE ASSIGNMENTS      1  1  1  1  2  3  4  1  1  1  1  1  1  2  3  4  1  1  1  1
TYPE ASSIGNMENTS      1  1  1  1  1  2  2  2  3  3  3  4  4  4  1  2  3  4  1  2
TYPE ASSIGNMENTS      3  4  1  2  3  4  5  6  7  8  9 10  1  1  1  1  1  1  2  3
TYPE ASSIGNMENTS      4  1  1  1  1  1  1  2  3  4  1  1  1  1  1  1  1  1  1  2
TYPE ASSIGNMENTS      2  2  3  3  3  4  4  4  1  2  3  4  1  2  3  4  1  2  3  4
TYPE ASSIGNMENTS      5  6  7  8  9 10  1  1  1  1  1  1  2  3  4  1  1  1  1  1
TYPE ASSIGNMENTS      1  2  3  4
EXPONENTS  0.8588500D+04 0.1297230D+04 0.2992960D+03 0.8737710D+02 0.2567890D+02
EXPONENTS  0.3740040D+01 0.4211750D+02 0.9628370D+01 0.2853320D+01 0.4211750D+02
EXPONENTS  0.9628370D+01 0.2853320D+01 0.4211750D+02 0.9628370D+01 0.2853320D+01
EXPONENTS  0.4211750D+02 0.9628370D+01 0.2853320D+01 0.9056610D+00 0.9056610D+00
EXPONENTS  0.9056610D+00 0.9056610D+00 0.2556110D+00 0.2556110D+00 0.2556110D+00
EXPONENTS  0.2556110D+00 0.8450000D-01 0.8450000D-01 0.8450000D-01 0.8450000D-01
EXPONENTS  0.1292000D+01 0.1292000D+01 0.1292000D+01 0.1292000D+01 0.1292000D+01
EXPONENTS  0.1292000D+01 0.3386500D+02 0.5094790D+01 0.1158790D+01 0.3258400D+00
EXPONENTS  0.1027410D+00 0.3600000D-01 0.7500000D+00 0.7500000D+00 0.7500000D+00
EXPONENTS  0.3386500D+02 0.5094790D+01 0.1158790D+01 0.3258400D+00 0.1027410D+00
EXPONENTS  0.3600000D-01 0.7500000D+00 0.7500000D+00 0.7500000D+00 0.8588500D+04
EXPONENTS  0.1297230D+04 0.2992960D+03 0.8737710D+02 0.2567890D+02 0.3740040D+01
EXPONENTS  0.4211750D+02 0.9628370D+01 0.2853320D+01 0.4211750D+02 0.9628370D+01
EXPONENTS  0.2853320D+01 0.4211750D+02 0.9628370D+01 0.2853320D+01 0.4211750D+02
EXPONENTS  0.9628370D+01 0.2853320D+01 0.9056610D+00 0.9056610D+00 0.9056610D+00
EXPONENTS  0.9056610D+00 0.2556110D+00 0.2556110D+00 0.2556110D+00 0.2556110D+00
EXPONENTS  0.8450000D-01 0.8450000D-01 0.8450000D-01 0.8450000D-01 0.1292000D+01
EXPONENTS  0.1292000D+01 0.1292000D+01 0.1292000D+01 0.1292000D+01 0.1292000D+01
EXPONENTS  0.3386500D+02 0.5094790D+01 0.1158790D+01 0.3258400D+00 0.1027410D+00
EXPONENTS  0.3600000D-01 0.7500000D+00 0.7500000D+00 0.7500000D+00 0.3386500D+02
EXPONENTS  0.5094790D+01 0.1158790D+01 0.3258400D+00 0.1027410D+00 0.3600000D-01
EXPONENTS  0.7500000D+00 0.7500000D+00 0.7500000D+00 0.8588500D+04 0.1297230D+04
EXPONENTS  0.2992960D+03 0.8737710D+02 0.2567890D+02 0.3740040D+01 0.4211750D+02
EXPONENTS  0.9628370D+01 0.2853320D+01 0.4211750D+02 0.9628370D+01 0.2853320D+01
EXPONENTS  0.4211750D+02 0.9628370D+01 0.2853320D+01 0.4211750D+02 0.9628370D+01
EXPONENTS  0.2853320D+01 0.9056610D+00 0.9056610D+00 0.9056610D+00 0.9056610D+00
EXPONENTS  0.2556110D+00 0.2556110D+00 0.2556110D+00 0.2556110D+00 0.8450000D-01
EXPONENTS  0.8450000D-01 0.8450000D-01 0.8450000D-01 0.1292000D+01 0.1292000D+01
EXPONENTS  0.1292000D+01 0.1292000D+01 0.1292000D+01 0.1292000D+01 0.3386500D+02
EXPONENTS  0.5094790D+01 0.1158790D+01 0.3258400D+00 0.1027410D+00 0.3600000D-01
EXPONENTS  0.7500000D+00 0.7500000D+00 0.7500000D+00 0.3386500D+02 0.5094790D+01
EXPONENTS  0.1158790D+01 0.3258400D+00 0.1027410D+00 0.3600000D-01 0.7500000D+00
EXPONENTS  0.7500000D+00 0.7500000D+00 0.8588500D+04 0.1297230D+04 0.2992960D+03
EXPONENTS  0.8737710D+02 0.2567890D+02 0.3740040D+01 0.4211750D+02 0.9628370D+01
EXPONENTS  0.2853320D+01 0.4211750D+02 0.9628370D+01 0.2853320D+01 0.4211750D+02
EXPONENTS  0.9628370D+01 0.2853320D+01 0.4211750D+02 0.9628370D+01 0.2853320D+01
EXPONENTS  0.9056610D+00 0.9056610D+00 0.9056610D+00 0.9056610D+00 0.2556110D+00
EXPONENTS  0.2556110D+00 0.2556110D+00 0.2556110D+00 0.8450000D-01 0.8450000D-01
EXPONENTS  0.8450000D-01 0.8450000D-01 0.1292000D+01 0.1292000D+01 0.1292000D+01
EXPONENTS  0.1292000D+01 0.1292000D+01 0.1292000D+01 0.3386500D+02 0.5094790D+01
EXPONENTS  0.1158790D+01 0.3258400D+00 0.1027410D+00 0.3600000D-01 0.7500000D+00
EXPONENTS  0.7500000D+00 0.7500000D+00 0.3386500D+02 0.5094790D+01 0.1158790D+01
EXPONENTS  0.3258400D+00 0.1027410D+00 0.3600000D-01 0.7500000D+00 0.7500000D+00
EXPONENTS  0.7500000D+00 0.8588500D+04 0.1297230D+04 0.2992960D+03 0.8737710D+02
EXPONENTS  0.2567890D+02 0.3740040D+01 0.4211750D+02 0.9628370D+01 0.2853320D+01
EXPONENTS  0.4211750D+02 0.9628370D+01 0.2853320D+01 0.4211750D+02 0.9628370D+01
EXPONENTS  0.2853320D+01 0.4211750D+02 0.9628370D+01 0.2853320D+01 0.9056610D+00
EXPONENTS  0.9056610D+00 0.9056610D+00 0.9056610D+00 0.2556110D+00 0.2556110D+00
EXPONENTS  0.2556110D+00 0.2556110D+00 0.8450000D-01 0.8450000D-01 0.8450000D-01
EXPONENTS  0.8450000D-01 0.1292000D+01 0.1292000D+01 0.1292000D+01 0.1292000D+01
EXPONENTS  0.1292000D+01 0.1292000D+01 0.3386500D+02 0.5094790D+01 0.1158790D+01
EXPONENTS  0.3258400D+00 0.1027410D+00 0.3600000D-01 0.7500000D+00 0.7500000D+00
EXPONENTS  0.7500000D+00 0.3386500D+02 0.5094790D+01 0.1158790D+01 0.3258400D+00
EXPONENTS  0.1027410D+00 0.3600000D-01 0.7500000D+00 0.7500000D+00 0.7500000D+00
EXPONENTS  0.8588500D+04 0.1297230D+04 0.2992960D+03 0.8737710D+02 0.2567890D+02
EXPONENTS  0.3740040D+01 0.4211750D+02 0.9628370D+01 0.2853320D+01 0.4211750D+02
EXPONENTS  0.9628370D+01 0.2853320D+01 0.4211750D+02 0.9628370D+01 0.2853320D+01
EXPONENTS  0.4211750D+02 0.9628370D+01 0.2853320D+01 0.9056610D+00 0.9056610D+00
EXPONENTS  0.9056610D+00 0.9056610D+00 0.2556110D+00 0.2556110D+00 0.2556110D+00
EXPONENTS  0.2556110D+00 0.8450000D-01 0.8450000D-01 0.8450000D-01 0.8450000D-01
EXPONENTS  0.1292000D+01 0.1292000D+01 0.1292000D+01 0.1292000D+01 0.1292000D+01
EXPONENTS  0.1292000D+01 0.3386500D+02 0.5094790D+01 0.1158790D+01 0.3258400D+00
EXPONENTS  0.1027410D+00 0.3600000D-01 0.7500000D+00 0.7500000D+00 0.7500000D+00
EXPONENTS  0.3386500D+02 0.5094790D+01 0.1158790D+01 0.3258400D+00 0.1027410D+00
EXPONENTS  0.3600000D-01 0.7500000D+00 0.7500000D+00 0.7500000D+00 0.8588500D+04
EXPONENTS  0.1297230D+04 0.2992960D+03 0.8737710D+02 0.2567890D+02 0.3740040D+01
EXPONENTS  0.4211750D+02 0.9628370D+01 0.2853320D+01 0.4211750D+02 0.9628370D+01
EXPONENTS  0.2853320D+01 0.4211750D+02 0.9628370D+01 0.2853320D+01 0.4211750D+02
EXPONENTS  0.9628370D+01 0.2853320D+01 0.9056610D+00 0.9056610D+00 0.9056610D+00
EXPONENTS  0.9056610D+00 0.2556110D+00 0.2556110D+00 0.2556110D+00 0.2556110D+00
EXPONENTS  0.8450000D-01 0.8450000D-01 0.8450000D-01 0.8450000D-01 0.1292000D+01
EXPONENTS  0.1292000D+01 0.1292000D+01 0.1292000D+01 0.1292000D+01 0.1292000D+01
EXPONENTS  0.3386500D+02 0.5094790D+01 0.1158790D+01 0.3258400D+00 0.1027410D+00
EXPONENTS  0.3600000D-01 0.7500000D+00 0.7500000D+00 0.7500000D+00 0.3386500D+02
EXPONENTS  0.5094790D+01 0.1158790D+01 0.3258400D+00 0.1027410D+00 0.3600000D-01
EXPONENTS  0.7500000D+00 0.7500000D+00 0.7500000D+00 0.8588500D+04 0.1297230D+04
EXPONENTS  0.2992960D+03 0.8737710D+02 0.2567890D+02 0.3740040D+01 0.4211750D+02
EXPONENTS  0.9628370D+01 0.2853320D+01 0.4211750D+02 0.9628370D+01 0.2853320D+01
EXPONENTS  0.4211750D+02 0.9628370D+01 0.2853320D+01 0.4211750D+02 0.9628370D+01
EXPONENTS  0.2853320D+01 0.9056610D+00 0.9056610D+00 0.9056610D+00 0.9056610D+00
EXPONENTS  0.2556110D+00 0.2556110D+00 0.2556110D+00 0.2556110D+00 0.8450000D-01
EXPONENTS  0.8450000D-01 0.8450000D-01 0.8450000D-01 0.1292000D+01 0.1292000D+01
EXPONENTS  0.1292000D+01 0.1292000D+01 0.1292000D+01 0.1292000D+01 0.3386500D+02
EXPONENTS  0.5094790D+01 0.1158790D+01 0.3258400D+00 0.1027410D+00 0.3600000D-01
EXPONENTS  0.7500000D+00 0.7500000D+00 0.7500000D+00 0.3386500D+02 0.5094790D+01
EXPONENTS  0.1158790D+01 0.3258400D+00 0.1027410D+00 0.3600000D-01 0.7500000D+00
EXPONENTS  0.7500000D+00 0.7500000D+00 0.8588500D+04 0.1297230D+04 0.2992960D+03
EXPONENTS  0.8737710D+02 0.2567890D+02 0.3740040D+01 0.4211750D+02 0.9628370D+01
EXPONENTS  0.2853320D+01 0.4211750D+02 0.9628370D+01 0.2853320D+01 0.4211750D+02
EXPONENTS  0.9628370D+01 0.2853320D+01 0.4211750D+02 0.9628370D+01 0.2853320D+01
EXPONENTS  0.9056610D+00 0.9056610D+00 0.9056610D+00 0.9056610D+00 0.2556110D+00
EXPONENTS  0.2556110D+00 0.2556110D+00 0.2556110D+00 0.8450000D-01 0.8450000D-01
EXPONENTS  0.8450000D-01 0.8450000D-01 0.1292000D+01 0.1292000D+01 0.1292000D+01
EXPONENTS  0.1292000D+01 0.1292000D+01 0.1292000D+01 0.3386500D+02 0.5094790D+01
EXPONENTS  0.1158790D+01 0.3258400D+00 0.1027410D+00 0.3600000D-01 0.7500000D+00
EXPONENTS  0.7500000D+00 0.7500000D+00 0.3386500D+02 0.5094790D+01 0.1158790D+01
EXPONENTS  0.3258400D+00 0.1027410D+00 0.3600000D-01 0.7500000D+00 0.7500000D+00
EXPONENTS  0.7500000D+00 0.8588500D+04 0.1297230D+04 0.2992960D+03 0.8737710D+02
EXPONENTS  0.2567890D+02 0.3740040D+01 0.4211750D+02 0.9628370D+01 0.2853320D+01
EXPONENTS  0.4211750D+02 0.9628370D+01 0.2853320D+01 0.4211750D+02 0.9628370D+01
EXPONENTS  0.2853320D+01 0.4211750D+02 0.9628370D+01 0.2853320D+01 0.9056610D+00
EXPONENTS  0.9056610D+00 0.9056610D+00 0.9056610D+00 0.2556110D+00 0.2556110D+00
EXPONENTS  0.2556110D+00 0.2556110D+00 0.8450000D-01 0.8450000D-01 0.8450000D-01
EXPONENTS  0.8450000D-01 0.1292000D+01 0.1292000D+01 0.1292000D+01 0.1292000D+01
EXPONENTS  0.1292000D+01 0.1292000D+01 0.3386500D+02 0.5094790D+01 0.1158790D+01
EXPONENTS  0.3258400D+00 0.1027410D+00 0.3600000D-01 0.7500000D+00 0.7500000D+00
EXPONENTS  0.7500000D+00 0.3386500D+02 0.5094790D+01 0.1158790D+01 0.3258400D+00
EXPONENTS  0.1027410D+00 0.3600000D-01 0.7500000D+00 0.7500000D+00 0.7500000D+00
EXPONENTS  0.8588500D+04 0.1297230D+04 0.2992960D+03 0.8737710D+02 0.2567890D+02
EXPONENTS  0.3740040D+01 0.4211750D+02 0.9628370D+01 0.2853320D+01 0.4211750D+02
EXPONENTS  0.9628370D+01 0.2853320D+01 0.4211750D+02 0.9628370D+01 0.2853320D+01
EXPONENTS  0.4211750D+02 0.9628370D+01 0.2853320D+01 0.9056610D+00 0.9056610D+00
EXPONENTS  0.9056610D+00 0.9056610D+00 0.2556110D+00 0.2556110D+00 0.2556110D+00
EXPONENTS  0.2556110D+00 0.8450000D-01 0.8450000D-01 0.8450000D-01 0.8450000D-01
EXPONENTS  0.1292000D+01 0.1292000D+01 0.1292000D+01 0.1292000D+01 0.1292000D+01
EXPONENTS  0.1292000D+01 0.3386500D+02 0.5094790D+01 0.1158790D+01 0.3258400D+00
EXPONENTS  0.1027410D+00 0.3600000D-01 0.7500000D+00 0.7500000D+00 0.7500000D+00
EXPONENTS  0.3386500D+02 0.5094790D+01 0.1158790D+01 0.3258400D+00 0.1027410D+00
EXPONENTS  0.3600000D-01 0.7500000D+00 0.7500000D+00 0.7500000D+00 0.8588500D+04
EXPONENTS  0.1297230D+04 0.2992960D+03 0.8737710D+02 0.2567890D+02 0.3740040D+01
EXPONENTS  0.4211750D+02 0.9628370D+01 0.2853320D+01 0.4211750D+02 0.9628370D+01
EXPONENTS  0.2853320D+01 0.4211750D+02 0.9628370D+01 0.2853320D+01 0.4211750D+02
EXPONENTS  0.9628370D+01 0.2853320D+01 0.9056610D+00 0.9056610D+00 0.9056610D+00
EXPONENTS  0.9056610D+00 0.2556110D+00 0.2556110D+00 0.2556110D+00 0.2556110D+00
EXPONENTS  0.8450000D-01 0.8450000D-01 0.8450000D-01 0.8450000D-01 0.1292000D+01
EXPONENTS  0.1292000D+01 0.1292000D+01 0.1292000D+01 0.1292000D+01 0.1292000D+01
EXPONENTS  0.3386500D+02 0.5094790D+01 0.1158790D+01 0.3258400D+00 0.1027410D+00
EXPONENTS  0.3600000D-01 0.7500000D+00 0.7500000D+00 0.7500000D+00 0.3386500D+02
EXPONENTS  0.5094790D+01 0.1158790D+01 0.3258400D+00 0.1027410D+00 0.3600000D-01
EXPONENTS  0.7500000D+00 0.7500000D+00 0.7500000D+00 0.8588500D+04 0.1297230D+04
EXPONENTS  0.2992960D+03 0.8737710D+02 0.2567890D+02 0.3740040D+01 0.4211750D+02
EXPONENTS  0.9628370D+01 0.2853320D+01 0.4211750D+02 0.9628370D+01 0.2853320D+01
EXPONENTS  0.4211750D+02 0.9628370D+01 0.2853320D+01 0.4211750D+02 0.9628370D+01
EXPONENTS  0.2853320D+01 0.9056610D+00 0.9056610D+00 0.9056610D+00 0.9056610D+00
EXPONENTS  0.2556110D+00 0.2556110D+00 0.2556110D+00 0.2556110D+00 0.8450000D-01
EXPONENTS  0.8450000D-01 0.8450000D-01 0.8450000D-01 0.1292000D+01 0.1292000D+01
EXPONENTS  0.1292000D+01 0.1292000D+01 0.1292000D+01 0.1292000D+01 0.3386500D+02
EXPONENTS  0.5094790D+01 0.1158790D+01 0.3258400D+00 0.1027410D+00 0.3600000D-01
EXPONENTS  0.7500000D+00 0.7500000D+00 0.7500000D+00 0.3386500D+02 0.5094790D+01
EXPONENTS  0.1158790D+01 0.3258400D+00 0.1027410D+00 0.3600000D-01 0.7500000D+00
EXPONENTS  0.7500000D+00 0.7500000D+00 0.8588500D+04 0.1297230D+04 0.2992960D+03
EXPONENTS  0.8737710D+02 0.2567890D+02 0.3740040D+01 0.4211750D+02 0.9628370D+01
EXPONENTS  0.2853320D+01 0.4211750D+02 0.9628370D+01 0.2853320D+01 0.4211750D+02
EXPONENTS  0.9628370D+01 0.2853320D+01 0.4211750D+02 0.9628370D+01 0.2853320D+01
EXPONENTS  0.9056610D+00 0.9056610D+00 0.9056610D+00 0.9056610D+00 0.2556110D+00
EXPONENTS  0.2556110D+00 0.2556110D+00 0.2556110D+00 0.8450000D-01 0.8450000D-01
EXPONENTS  0.8450000D-01 0.8450000D-01 0.1292000D+01 0.1292000D+01 0.1292000D+01
EXPONENTS  0.1292000D+01 0.1292000D+01 0.1292000D+01 0.3386500D+02 0.5094790D+01
EXPONENTS  0.1158790D+01 0.3258400D+00 0.1027410D+00 0.3600000D-01 0.7500000D+00
EXPONENTS  0.7500000D+00 0.7500000D+00 0.3386500D+02 0.5094790D+01 0.1158790D+01
EXPONENTS  0.3258400D+00 0.1027410D+00 0.3600000D-01 0.7500000D+00 0.7500000D+00
EXPONENTS  0.7500000D+00 0.8588500D+04 0.1297230D+04 0.2992960D+03 0.8737710D+02
EXPONENTS  0.2567890D+02 0.3740040D+01 0.4211750D+02 0.9628370D+01 0.2853320D+01
EXPONENTS  0.4211750D+02 0.9628370D+01 0.2853320D+01 0.4211750D+02 0.9628370D+01
EXPONENTS  0.2853320D+01 0.4211750D+02 0.9628370D+01 0.2853320D+01 0.9056610D+00
EXPONENTS  0.9056610D+00 0.9056610D+00 0.9056610D+00 0.2556110D+00 0.2556110D+00
EXPONENTS  0.2556110D+00 0.2556110D+00 0.8450000D-01 0.8450000D-01 0.8450000D-01
EXPONENTS  0.8450000D-01 0.1292000D+01 0.1292000D+01 0.1292000D+01 0.1292000D+01
EXPONENTS  0.1292000D+01 0.1292000D+01 0.3386500D+02 0.5094790D+01 0.1158790D+01
EXPONENTS  0.3258400D+00 0.1027410D+00 0.3600000D-01 0.7500000D+00 0.7500000D+00
EXPONENTS  0.7500000D+00 0.3386500D+02 0.5094790D+01 0.1158790D+01 0.3258400D+00
EXPONENTS  0.1027410D+00 0.3600000D-01 0.7500000D+00 0.7500000D+00 0.7500000D+00
EXPONENTS  0.8588500D+04 0.1297230D+04 0.2992960D+03 0.8737710D+02 0.2567890D+02
EXPONENTS  0.3740040D+01 0.4211750D+02 0.9628370D+01 0.2853320D+01 0.4211750D+02
EXPONENTS  0.9628370D+01 0.2853320D+01 0.4211750D+02 0.9628370D+01 0.2853320D+01
EXPONENTS  0.4211750D+02 0.9628370D+01 0.2853320D+01 0.9056610D+00 0.9056610D+00
EXPONENTS  0.9056610D+00 0.9056610D+00 0.2556110D+00 0.2556110D+00 0.2556110D+00
EXPONENTS  0.2556110D+00 0.8450000D-01 0.8450000D-01 0.8450000D-01 0.8450000D-01
EXPONENTS  0.1292000D+01 0.1292000D+01 0.1292000D+01 0.1292000D+01 0.1292000D+01
EXPONENTS  0.1292000D+01 0.3386500D+02 0.5094790D+01 0.1158790D+01 0.3258400D+00
EXPONENTS  0.1027410D+00 0.3600000D-01 0.7500000D+00 0.7500000D+00 0.7500000D+00
EXPONENTS  0.3386500D+02 0.5094790D+01 0.1158790D+01 0.3258400D+00 0.1027410D+00
EXPONENTS  0.3600000D-01 0.7500000D+00 0.7500000D+00 0.7500000D+00
MO    1     MO 0.0        OCC NO =    2.0000000  ORB. ENERGY =  -19.179821
  0.27357445D-06  0.50314566D-06  0.82354166D-06  0.11098268D-05  0.10978551D-05
  0.12219441D-06 -0.79655599D-06 -0.21292304D-05  0.30411754D-08 -0.49611754D-05
 -0.50938653D-05 -0.38496563D-05 -0.56375644D-05 -0.57883447D-05 -0.43745048D-05
  0.12155135D-05  0.12480231D-05  0.94318557D-06 -0.31944055D-05  0.34637136D-05
  0.53617610D-05 -0.10992446D-05  0.15421015D-04 -0.36336517D-05 -0.35092048D-05
 -0.27040640D-05 -0.31681246D-04 -0.23016363D-05 -0.97652990D-06 -0.47908403D-05
 -0.49958133D-05 -0.80212279D-05 -0.41827499D-05 -0.36223948D-05  0.47380646D-05
 -0.32687860D-05  0.11041491D-05  0.19917274D-05  0.29363312D-05 -0.13316013D-04
  0.27819150D-04 -0.62712728D-04 -0.21001224D-05  0.38541537D-05  0.11118107D-05
 -0.11870216D-05 -0.21412176D-05 -0.31567191D-05  0.10296396D-04 -0.59911202D-05
  0.50627847D-04 -0.67840814D-06  0.22853266D-05  0.17540897D-05  0.86764603D-07
  0.15957350D-06  0.26118764D-06  0.35198347D-06  0.34818662D-06  0.38754165D-07
 -0.14641747D-05 -0.39138057D-05  0.55900805D-08  0.39345313D-06  0.40397629D-06
  0.30530252D-06  0.15525726D-04  0.15940972D-04  0.12047288D-04 -0.55484514D-05
 -0.56968483D-05 -0.43053569D-05 -0.15803644D-05 -0.12002933D-05 -0.15558744D-04
  0.60382069D-05  0.10249558D-04 -0.52222587D-06  0.12594452D-04 -0.40450687D-05
 -0.15543029D-05  0.10035872D-04 -0.86129204D-05 -0.19110045D-05 -0.11176066D-04
 -0.70132347D-05 -0.57491461D-05  0.47688428D-05  0.51342695D-05  0.10111483D-05
 -0.11316334D-05 -0.20413051D-05 -0.30094218D-05  0.10645416D-05 -0.51037737D-04
 -0.92560559D-05 -0.19124854D-05 -0.72880939D-05  0.30701527D-05  0.20710656D-05
  0.37359068D-05  0.55077113D-05 -0.84653426D-05  0.10363699D-04 -0.11703745D-04
 -0.70976286D-05  0.51895255D-06 -0.13328278D-05 -0.13215251D-05 -0.24304887D-05
 -0.39781894D-05 -0.53611147D-05 -0.53032843D-05 -0.59027068D-06 -0.84247431D-06
 -0.22519722D-05  0.32164872D-08  0.37878401D-06  0.38891483D-06  0.29391992D-06
 -0.33660866D-06 -0.34561148D-06 -0.26119368D-06  0.23716974D-05  0.24351300D-05
  0.18403340D-05  0.34458288D-05  0.36248995D-06  0.13751181D-05 -0.19943470D-05
 -0.14386172D-04 -0.49922833D-05 -0.44655431D-05 -0.58602900D-05  0.83093090D-04
  0.34434456D-05  0.52985759D-05  0.28037969D-04 -0.12198361D-05  0.17196281D-05
  0.81346178D-05 -0.16871675D-05  0.30535939D-06  0.69586661D-05 -0.41100552D-06
 -0.74139532D-06 -0.10930121D-05  0.47554010D-05 -0.72698525D-04 -0.16042841D-04
  0.46302805D-05  0.57205263D-05 -0.37650174D-05 -0.48272963D-06 -0.87077539D-06
 -0.12837524D-05  0.64871240D-05 -0.65027660D-04  0.40742063D-04 -0.24170004D-05
 -0.46584306D-06 -0.38640039D-05 -0.14649351D-05 -0.26942420D-05 -0.44098970D-05
 -0.59428955D-05 -0.58787894D-05 -0.65432604D-06 -0.66055502D-06 -0.17656936D-05
  0.25219365D-08  0.13012204D-05  0.13360224D-05  0.10096904D-05  0.72415749D-06
  0.74352555D-06  0.56191472D-06  0.38344965D-06  0.39370525D-06  0.29754025D-06
  0.12394873D-05 -0.77236190D-06 -0.57337452D-06 -0.39387330D-06 -0.44772533D-05
 -0.54639928D-06  0.13466410D-05  0.18285327D-06  0.67128509D-05  0.93757106D-06
  0.49970509D-06  0.12387827D-05  0.33827755D-05  0.44341324D-05  0.36673532D-05
  0.24436135D-05  0.38548415D-06  0.45309465D-06  0.61376855D-06  0.11071509D-05
  0.16322323D-05 -0.31403471D-05  0.95875891D-05 -0.14671766D-05  0.11416655D-05
 -0.15213298D-05  0.37214655D-06  0.16361412D-07  0.29513652D-07  0.43510903D-07
 -0.28225045D-06 -0.42148274D-05  0.33350655D-05  0.43399423D-07  0.94657667D-06
  0.14662930D-06 -0.97427366D-07 -0.17918397D-06 -0.29328578D-06 -0.39523978D-06
 -0.39097633D-06 -0.43516781D-07  0.13306886D-06  0.35569913D-06 -0.50804432D-09
 -0.89599002D-06 -0.91995386D-06 -0.69524929D-06  0.58076639D-06  0.59629936D-06
  0.45064946D-06  0.10719316D-05  0.11006011D-05  0.83177233D-06  0.40114316D-06
  0.86679889D-06 -0.84304453D-06 -0.95316679D-06 -0.15787021D-05 -0.19282002D-05
 -0.61535712D-06  0.31941302D-06  0.19261008D-04  0.40855483D-06 -0.55874978D-05
 -0.33282308D-05 -0.76658372D-06  0.24657291D-05  0.22502509D-05  0.74530760D-06
  0.20199519D-06  0.60926348D-06  0.72239355D-07  0.13030949D-06  0.19211053D-06
 -0.92026884D-06 -0.24502447D-04  0.46542441D-05 -0.12999178D-05 -0.22835337D-05
  0.42544606D-06  0.19021553D-06  0.34312167D-06  0.50585178D-06 -0.19582926D-05
 -0.49833433D-06 -0.24508607D-05 -0.24270639D-06  0.18393009D-05  0.46782604D-06
  0.27124100D-05  0.49885408D-05  0.81651727D-05  0.11003606D-04  0.10884910D-04
  0.12115215D-05  0.50137594D-06  0.13402007D-05 -0.19142059D-08  0.95087372D-05
  0.97630545D-05  0.73783665D-05  0.47874375D-05  0.49154806D-05  0.37148433D-05
  0.19693603D-07  0.20220321D-07  0.15281379D-07 -0.32229471D-05 -0.83229745D-05
 -0.39143565D-05 -0.22243795D-06  0.14288938D-04  0.68443585D-05  0.42604108D-05
 -0.21449600D-05 -0.45130382D-04  0.45131356D-06 -0.13533947D-04  0.27128104D-06
 -0.88355344D-05 -0.10793180D-04 -0.12271586D-04 -0.13490274D-05  0.55982323D-05
 -0.11945700D-05 -0.31024397D-06 -0.55963586D-06 -0.82505077D-06 -0.17485455D-05
  0.42683201D-04 -0.16861515D-04  0.11852243D-05  0.26962983D-05  0.79228588D-06