 Li14F12 Cubic-like Cluster Dication, Oh Symmetry (See Ba
GAUSSIAN             74 MOL ORBITALS    936 PRIMITIVES       26 NUCLEI
  F    1    (CENTRE  1)  -3.58114514  0.00000000  3.58114514  CHARGE =  9.0
  Li   2    (CENTRE  2)   0.00000000  0.00000000  4.32922466  CHARGE =  3.0
  Li   3    (CENTRE  3)   0.00000000  0.00000000 -4.32922466  CHARGE =  3.0
  Li   4    (CENTRE  4)   0.00000000  4.32922466  0.00000000  CHARGE =  3.0
  Li   5    (CENTRE  5)   0.00000000 -4.32922466  0.00000000  CHARGE =  3.0
  Li   6    (CENTRE  6)   4.32922466  0.00000000  0.00000000  CHARGE =  3.0
  Li   7    (CENTRE  7)  -4.32922466  0.00000000  0.00000000  CHARGE =  3.0
  Li   8    (CENTRE  8)  -3.46091521  3.46091521  3.46091521  CHARGE =  3.0
  Li   9    (CENTRE  9)  -3.46091521 -3.46091521  3.46091521  CHARGE =  3.0
  F   10    (CENTRE 10)   0.00000000  3.58114514  3.58114514  CHARGE =  9.0
  F   11    (CENTRE 11)   0.00000000 -3.58114514  3.58114514  CHARGE =  9.0
  F   12    (CENTRE 12)   3.58114514  0.00000000  3.58114514  CHARGE =  9.0
  F   13    (CENTRE 13)   3.58114514  0.00000000 -3.58114514  CHARGE =  9.0
  Li  14    (CENTRE 14)   3.46091521  3.46091521 -3.46091521  CHARGE =  3.0
  Li  15    (CENTRE 15)   3.46091521 -3.46091521 -3.46091521  CHARGE =  3.0
  F   16    (CENTRE 16)  -3.58114514  0.00000000 -3.58114514  CHARGE =  9.0
  F   17    (CENTRE 17)   3.58114514  3.58114514  0.00000000  CHARGE =  9.0
  F   18    (CENTRE 18)   3.58114514 -3.58114514  0.00000000  CHARGE =  9.0
  F   19    (CENTRE 19)  -3.58114514  3.58114514  0.00000000  CHARGE =  9.0
  F   20    (CENTRE 20)  -3.58114514 -3.58114514  0.00000000  CHARGE =  9.0
  F   21    (CENTRE 21)   0.00000000  3.58114514 -3.58114514  CHARGE =  9.0
  F   22    (CENTRE 22)   0.00000000 -3.58114514 -3.58114514  CHARGE =  9.0
  Li  23    (CENTRE 23)  -3.46091521 -3.46091521 -3.46091521  CHARGE =  3.0
  Li  24    (CENTRE 24)  -3.46091521  3.46091521 -3.46091521  CHARGE =  3.0
  Li  25    (CENTRE 25)   3.46091521 -3.46091521  3.46091521  CHARGE =  3.0
  Li  26    (CENTRE 26)   3.46091521  3.46091521  3.46091521  CHARGE =  3.0
CENTRE ASSIGNMENTS    1  1  1  1  1  1  1  1  1  1  1  1  1  1  1  1  1  1  1  1
CENTRE ASSIGNMENTS    1  1  1  1  1  1  1  1  1  1  1  1  1  1  1  1  2  2  2  2
CENTRE ASSIGNMENTS    2  2  2  2  2  2  2  2  2  2  2  2  2  2  2  2  2  2  2  2
CENTRE ASSIGNMENTS    2  2  2  2  2  2  2  2  2  2  2  2  3  3  3  3  3  3  3  3
CENTRE ASSIGNMENTS    3  3  3  3  3  3  3  3  3  3  3  3  3  3  3  3  3  3  3  3
CENTRE ASSIGNMENTS    3  3  3  3  3  3  3  3  4  4  4  4  4  4  4  4  4  4  4  4
CENTRE ASSIGNMENTS    4  4  4  4  4  4  4  4  4  4  4  4  4  4  4  4  4  4  4  4
CENTRE ASSIGNMENTS    4  4  4  4  5  5  5  5  5  5  5  5  5  5  5  5  5  5  5  5
CENTRE ASSIGNMENTS    5  5  5  5  5  5  5  5  5  5  5  5  5  5  5  5  5  5  5  5
CENTRE ASSIGNMENTS    6  6  6  6  6  6  6  6  6  6  6  6  6  6  6  6  6  6  6  6
CENTRE ASSIGNMENTS    6  6  6  6  6  6  6  6  6  6  6  6  6  6  6  6  7  7  7  7
CENTRE ASSIGNMENTS    7  7  7  7  7  7  7  7  7  7  7  7  7  7  7  7  7  7  7  7
CENTRE ASSIGNMENTS    7  7  7  7  7  7  7  7  7  7  7  7  8  8  8  8  8  8  8  8
CENTRE ASSIGNMENTS    8  8  8  8  8  8  8  8  8  8  8  8  8  8  8  8  8  8  8  8
CENTRE ASSIGNMENTS    8  8  8  8  8  8  8  8  9  9  9  9  9  9  9  9  9  9  9  9
CENTRE ASSIGNMENTS    9  9  9  9  9  9  9  9  9  9  9  9  9  9  9  9  9  9  9  9
CENTRE ASSIGNMENTS    9  9  9  9 10 10 10 10 10 10 10 10 10 10 10 10 10 10 10 10
CENTRE ASSIGNMENTS   10 10 10 10 10 10 10 10 10 10 10 10 10 10 10 10 10 10 10 10
CENTRE ASSIGNMENTS   11 11 11 11 11 11 11 11 11 11 11 11 11 11 11 11 11 11 11 11
CENTRE ASSIGNMENTS   11 11 11 11 11 11 11 11 11 11 11 11 11 11 11 11 12 12 12 12
CENTRE ASSIGNMENTS   12 12 12 12 12 12 12 12 12 12 12 12 12 12 12 12 12 12 12 12
CENTRE ASSIGNMENTS   12 12 12 12 12 12 12 12 12 12 12 12 13 13 13 13 13 13 13 13
CENTRE ASSIGNMENTS   13 13 13 13 13 13 13 13 13 13 13 13 13 13 13 13 13 13 13 13
CENTRE ASSIGNMENTS   13 13 13 13 13 13 13 13 14 14 14 14 14 14 14 14 14 14 14 14
CENTRE ASSIGNMENTS   14 14 14 14 14 14 14 14 14 14 14 14 14 14 14 14 14 14 14 14
CENTRE ASSIGNMENTS   14 14 14 14 15 15 15 15 15 15 15 15 15 15 15 15 15 15 15 15
CENTRE ASSIGNMENTS   15 15 15 15 15 15 15 15 15 15 15 15 15 15 15 15 15 15 15 15
CENTRE ASSIGNMENTS   16 16 16 16 16 16 16 16 16 16 16 16 16 16 16 16 16 16 16 16
CENTRE ASSIGNMENTS   16 16 16 16 16 16 16 16 16 16 16 16 16 16 16 16 17 17 17 17
CENTRE ASSIGNMENTS   17 17 17 17 17 17 17 17 17 17 17 17 17 17 17 17 17 17 17 17
CENTRE ASSIGNMENTS   17 17 17 17 17 17 17 17 17 17 17 17 18 18 18 18 18 18 18 18
CENTRE ASSIGNMENTS   18 18 18 18 18 18 18 18 18 18 18 18 18 18 18 18 18 18 18 18
CENTRE ASSIGNMENTS   18 18 18 18 18 18 18 18 19 19 19 19 19 19 19 19 19 19 19 19
CENTRE ASSIGNMENTS   19 19 19 19 19 19 19 19 19 19 19 19 19 19 19 19 19 19 19 19
CENTRE ASSIGNMENTS   19 19 19 19 20 20 20 20 20 20 20 20 20 20 20 20 20 20 20 20
CENTRE ASSIGNMENTS   20 20 20 20 20 20 20 20 20 20 20 20 20 20 20 20 20 20 20 20
CENTRE ASSIGNMENTS   21 21 21 21 21 21 21 21 21 21 21 21 21 21 21 21 21 21 21 21
CENTRE ASSIGNMENTS   21 21 21 21 21 21 21 21 21 21 21 21 21 21 21 21 22 22 22 22
CENTRE ASSIGNMENTS   22 22 22 22 22 22 22 22 22 22 22 22 22 22 22 22 22 22 22 22
CENTRE ASSIGNMENTS   22 22 22 22 22 22 22 22 22 22 22 22 23 23 23 23 23 23 23 23
CENTRE ASSIGNMENTS   23 23 23 23 23 23 23 23 23 23 23 23 23 23 23 23 23 23 23 23
CENTRE ASSIGNMENTS   23 23 23 23 23 23 23 23 24 24 24 24 24 24 24 24 24 24 24 24
CENTRE ASSIGNMENTS   24 24 24 24 24 24 24 24 24 24 24 24 24 24 24 24 24 24 24 24
CENTRE ASSIGNMENTS   24 24 24 24 25 25 25 25 25 25 25 25 25 25 25 25 25 25 25 25
CENTRE ASSIGNMENTS   25 25 25 25 25 25 25 25 25 25 25 25 25 25 25 25 25 25 25 25
CENTRE ASSIGNMENTS   26 26 26 26 26 26 26 26 26 26 26 26 26 26 26 26 26 26 26 26
CENTRE ASSIGNMENTS   26 26 26 26 26 26 26 26 26 26 26 26 26 26 26 26
TYPE ASSIGNMENTS      1  1  1  1  1  1  1  1  1  2  2  2  3  3  3  4  4  4  1  2
TYPE ASSIGNMENTS      3  4  1  2  3  4  1  2  3  4  5  6  7  8  9 10  1  1  1  1
TYPE ASSIGNMENTS      1  1  1  1  1  2  2  2  3  3  3  4  4  4  1  2  3  4  1  2
TYPE ASSIGNMENTS      3  4  1  2  3  4  5  6  7  8  9 10  1  1  1  1  1  1  1  1
TYPE ASSIGNMENTS      1  2  2  2  3  3  3  4  4  4  1  2  3  4  1  2  3  4  1  2
TYPE ASSIGNMENTS      3  4  5  6  7  8  9 10  1  1  1  1  1  1  1  1  1  2  2  2
TYPE ASSIGNMENTS      3  3  3  4  4  4  1  2  3  4  1  2  3  4  1  2  3  4  5  6
TYPE ASSIGNMENTS      7  8  9 10  1  1  1  1  1  1  1  1  1  2  2  2  3  3  3  4
TYPE ASSIGNMENTS      4  4  1  2  3  4  1  2  3  4  1  2  3  4  5  6  7  8  9 10
TYPE ASSIGNMENTS      1  1  1  1  1  1  1  1  1  2  2  2  3  3  3  4  4  4  1  2
TYPE ASSIGNMENTS      3  4  1  2  3  4  1  2  3  4  5  6  7  8  9 10  1  1  1  1
TYPE ASSIGNMENTS      1  1  1  1  1  2  2  2  3  3  3  4  4  4  1  2  3  4  1  2
TYPE ASSIGNMENTS      3  4  1  2  3  4  5  6  7  8  9 10  1  1  1  1  1  1  1  1
TYPE ASSIGNMENTS      1  2  2  2  3  3  3  4  4  4  1  2  3  4  1  2  3  4  1  2
TYPE ASSIGNMENTS      3  4  5  6  7  8  9 10  1  1  1  1  1  1  1  1  1  2  2  2
TYPE ASSIGNMENTS      3  3  3  4  4  4  1  2  3  4  1  2  3  4  1  2  3  4  5  6
TYPE ASSIGNMENTS      7  8  9 10  1  1  1  1  1  1  1  1  1  2  2  2  3  3  3  4
TYPE ASSIGNMENTS      4  4  1  2  3  4  1  2  3  4  1  2  3  4  5  6  7  8  9 10
TYPE ASSIGNMENTS      1  1  1  1  1  1  1  1  1  2  2  2  3  3  3  4  4  4  1  2
TYPE ASSIGNMENTS      3  4  1  2  3  4  1  2  3  4  5  6  7  8  9 10  1  1  1  1
TYPE ASSIGNMENTS      1  1  1  1  1  2  2  2  3  3  3  4  4  4  1  2  3  4  1  2
TYPE ASSIGNMENTS      3  4  1  2  3  4  5  6  7  8  9 10  1  1  1  1  1  1  1  1
TYPE ASSIGNMENTS      1  2  2  2  3  3  3  4  4  4  1  2  3  4  1  2  3  4  1  2
TYPE ASSIGNMENTS      3  4  5  6  7  8  9 10  1  1  1  1  1  1  1  1  1  2  2  2
TYPE ASSIGNMENTS      3  3  3  4  4  4  1  2  3  4  1  2  3  4  1  2  3  4  5  6
TYPE ASSIGNMENTS      7  8  9 10  1  1  1  1  1  1  1  1  1  2  2  2  3  3  3  4
TYPE ASSIGNMENTS      4  4  1  2  3  4  1  2  3  4  1  2  3  4  5  6  7  8  9 10
TYPE ASSIGNMENTS      1  1  1  1  1  1  1  1  1  2  2  2  3  3  3  4  4  4  1  2
TYPE ASSIGNMENTS      3  4  1  2  3  4  1  2  3  4  5  6  7  8  9 10  1  1  1  1
TYPE ASSIGNMENTS      1  1  1  1  1  2  2  2  3  3  3  4  4  4  1  2  3  4  1  2
TYPE ASSIGNMENTS      3  4  1  2  3  4  5  6  7  8  9 10  1  1  1  1  1  1  1  1
TYPE ASSIGNMENTS      1  2  2  2  3  3  3  4  4  4  1  2  3  4  1  2  3  4  1  2
TYPE ASSIGNMENTS      3  4  5  6  7  8  9 10  1  1  1  1  1  1  1  1  1  2  2  2
TYPE ASSIGNMENTS      3  3  3  4  4  4  1  2  3  4  1  2  3  4  1  2  3  4  5  6
TYPE ASSIGNMENTS      7  8  9 10  1  1  1  1  1  1  1  1  1  2  2  2  3  3  3  4
TYPE ASSIGNMENTS      4  4  1  2  3  4  1  2  3  4  1  2  3  4  5  6  7  8  9 10
TYPE ASSIGNMENTS      1  1  1  1  1  1  1  1  1  2  2  2  3  3  3  4  4  4  1  2
TYPE ASSIGNMENTS      3  4  1  2  3  4  1  2  3  4  5  6  7  8  9 10  1  1  1  1
TYPE ASSIGNMENTS      1  1  1  1  1  2  2  2  3  3  3  4  4  4  1  2  3  4  1  2
TYPE ASSIGNMENTS      3  4  1  2  3  4  5  6  7  8  9 10  1  1  1  1  1  1  1  1
TYPE ASSIGNMENTS      1  2  2  2  3  3  3  4  4  4  1  2  3  4  1  2  3  4  1  2
TYPE ASSIGNMENTS      3  4  5  6  7  8  9 10  1  1  1  1  1  1  1  1  1  2  2  2
TYPE ASSIGNMENTS      3  3  3  4  4  4  1  2  3  4  1  2  3  4  1  2  3  4  5  6
TYPE ASSIGNMENTS      7  8  9 10  1  1  1  1  1  1  1  1  1  2  2  2  3  3  3  4
TYPE ASSIGNMENTS      4  4  1  2  3  4  1  2  3  4  1  2  3  4  5  6  7  8  9 10
TYPE ASSIGNMENTS      1  1  1  1  1  1  1  1  1  2  2  2  3  3  3  4  4  4  1  2
TYPE ASSIGNMENTS      3  4  1  2  3  4  1  2  3  4  5  6  7  8  9 10
EXPONENTS  0.1142710D+05 0.1722350D+04 0.3957460D+03 0.1151390D+03 0.3360260D+02
EXPONENTS  0.4919010D+01 0.5544410D+02 0.1263230D+02 0.3717560D+01 0.5544410D+02
EXPONENTS  0.1263230D+02 0.3717560D+01 0.5544410D+02 0.1263230D+02 0.3717560D+01
EXPONENTS  0.5544410D+02 0.1263230D+02 0.3717560D+01 0.1165450D+01 0.1165450D+01
EXPONENTS  0.1165450D+01 0.1165450D+01 0.3218920D+00 0.3218920D+00 0.3218920D+00
EXPONENTS  0.3218920D+00 0.1076000D+00 0.1076000D+00 0.1076000D+00 0.1076000D+00
EXPONENTS  0.1750000D+01 0.1750000D+01 0.1750000D+01 0.1750000D+01 0.1750000D+01
EXPONENTS  0.1750000D+01 0.9004600D+03 0.1344330D+03 0.3043650D+02 0.8626390D+01
EXPONENTS  0.2483320D+01 0.3031790D+00 0.4868900D+01 0.8569240D+00 0.2432270D+00
EXPONENTS  0.4868900D+01 0.8569240D+00 0.2432270D+00 0.4868900D+01 0.8569240D+00
EXPONENTS  0.2432270D+00 0.4868900D+01 0.8569240D+00 0.2432270D+00 0.6350700D-01
EXPONENTS  0.6350700D-01 0.6350700D-01 0.6350700D-01 0.2436830D-01 0.2436830D-01
EXPONENTS  0.2436830D-01 0.2436830D-01 0.7400000D-02 0.7400000D-02 0.7400000D-02
EXPONENTS  0.7400000D-02 0.2000000D+00 0.2000000D+00 0.2000000D+00 0.2000000D+00
EXPONENTS  0.2000000D+00 0.2000000D+00 0.9004600D+03 0.1344330D+03 0.3043650D+02
EXPONENTS  0.8626390D+01 0.2483320D+01 0.3031790D+00 0.4868900D+01 0.8569240D+00
EXPONENTS  0.2432270D+00 0.4868900D+01 0.8569240D+00 0.2432270D+00 0.4868900D+01
EXPONENTS  0.8569240D+00 0.2432270D+00 0.4868900D+01 0.8569240D+00 0.2432270D+00
EXPONENTS  0.6350700D-01 0.6350700D-01 0.6350700D-01 0.6350700D-01 0.2436830D-01
EXPONENTS  0.2436830D-01 0.2436830D-01 0.2436830D-01 0.7400000D-02 0.7400000D-02
EXPONENTS  0.7400000D-02 0.7400000D-02 0.2000000D+00 0.2000000D+00 0.2000000D+00
EXPONENTS  0.2000000D+00 0.2000000D+00 0.2000000D+00 0.9004600D+03 0.1344330D+03
EXPONENTS  0.3043650D+02 0.8626390D+01 0.2483320D+01 0.3031790D+00 0.4868900D+01
EXPONENTS  0.8569240D+00 0.2432270D+00 0.4868900D+01 0.8569240D+00 0.2432270D+00
EXPONENTS  0.4868900D+01 0.8569240D+00 0.2432270D+00 0.4868900D+01 0.8569240D+00
EXPONENTS  0.2432270D+00 0.6350700D-01 0.6350700D-01 0.6350700D-01 0.6350700D-01
EXPONENTS  0.2436830D-01 0.2436830D-01 0.2436830D-01 0.2436830D-01 0.7400000D-02
EXPONENTS  0.7400000D-02 0.7400000D-02 0.7400000D-02 0.2000000D+00 0.2000000D+00
EXPONENTS  0.2000000D+00 0.2000000D+00 0.2000000D+00 0.2000000D+00 0.9004600D+03
EXPONENTS  0.1344330D+03 0.3043650D+02 0.8626390D+01 0.2483320D+01 0.3031790D+00
EXPONENTS  0.4868900D+01 0.8569240D+00 0.2432270D+00 0.4868900D+01 0.8569240D+00
EXPONENTS  0.2432270D+00 0.4868900D+01 0.8569240D+00 0.2432270D+00 0.4868900D+01
EXPONENTS  0.8569240D+00 0.2432270D+00 0.6350700D-01 0.6350700D-01 0.6350700D-01
EXPONENTS  0.6350700D-01 0.2436830D-01 0.2436830D-01 0.2436830D-01 0.2436830D-01
EXPONENTS  0.7400000D-02 0.7400000D-02 0.7400000D-02 0.7400000D-02 0.2000000D+00
EXPONENTS  0.2000000D+00 0.2000000D+00 0.2000000D+00 0.2000000D+00 0.2000000D+00
EXPONENTS  0.9004600D+03 0.1344330D+03 0.3043650D+02 0.8626390D+01 0.2483320D+01
EXPONENTS  0.3031790D+00 0.4868900D+01 0.8569240D+00 0.2432270D+00 0.4868900D+01
EXPONENTS  0.8569240D+00 0.2432270D+00 0.4868900D+01 0.8569240D+00 0.2432270D+00
EXPONENTS  0.4868900D+01 0.8569240D+00 0.2432270D+00 0.6350700D-01 0.6350700D-01
EXPONENTS  0.6350700D-01 0.6350700D-01 0.2436830D-01 0.2436830D-01 0.2436830D-01
EXPONENTS  0.2436830D-01 0.7400000D-02 0.7400000D-02 0.7400000D-02 0.7400000D-02
EXPONENTS  0.2000000D+00 0.2000000D+00 0.2000000D+00 0.2000000D+00 0.2000000D+00
EXPONENTS  0.2000000D+00 0.9004600D+03 0.1344330D+03 0.3043650D+02 0.8626390D+01
EXPONENTS  0.2483320D+01 0.3031790D+00 0.4868900D+01 0.8569240D+00 0.2432270D+00
EXPONENTS  0.4868900D+01 0.8569240D+00 0.2432270D+00 0.4868900D+01 0.8569240D+00
EXPONENTS  0.2432270D+00 0.4868900D+01 0.8569240D+00 0.2432270D+00 0.6350700D-01
EXPONENTS  0.6350700D-01 0.6350700D-01 0.6350700D-01 0.2436830D-01 0.2436830D-01
EXPONENTS  0.2436830D-01 0.2436830D-01 0.7400000D-02 0.7400000D-02 0.7400000D-02
EXPONENTS  0.7400000D-02 0.2000000D+00 0.2000000D+00 0.2000000D+00 0.2000000D+00
EXPONENTS  0.2000000D+00 0.2000000D+00 0.9004600D+03 0.1344330D+03 0.3043650D+02
EXPONENTS  0.8626390D+01 0.2483320D+01 0.3031790D+00 0.4868900D+01 0.8569240D+00
EXPONENTS  0.2432270D+00 0.4868900D+01 0.8569240D+00 0.2432270D+00 0.4868900D+01
EXPONENTS  0.8569240D+00 0.2432270D+00 0.4868900D+01 0.8569240D+00 0.2432270D+00
EXPONENTS  0.6350700D-01 0.6350700D-01 0.6350700D-01 0.6350700D-01 0.2436830D-01
EXPONENTS  0.2436830D-01 0.2436830D-01 0.2436830D-01 0.7400000D-02 0.7400000D-02
EXPONENTS  0.7400000D-02 0.7400000D-02 0.2000000D+00 0.2000000D+00 0.2000000D+00
EXPONENTS  0.2000000D+00 0.2000000D+00 0.2000000D+00 0.9004600D+03 0.1344330D+03
EXPONENTS  0.3043650D+02 0.8626390D+01 0.2483320D+01 0.3031790D+00 0.4868900D+01
EXPONENTS  0.8569240D+00 0.2432270D+00 0.4868900D+01 0.8569240D+00 0.2432270D+00
EXPONENTS  0.4868900D+01 0.8569240D+00 0.2432270D+00 0.4868900D+01 0.8569240D+00
EXPONENTS  0.2432270D+00 0.6350700D-01 0.6350700D-01 0.6350700D-01 0.6350700D-01
EXPONENTS  0.2436830D-01 0.2436830D-01 0.2436830D-01 0.2436830D-01 0.7400000D-02
EXPONENTS  0.7400000D-02 0.7400000D-02 0.7400000D-02 0.2000000D+00 0.2000000D+00
EXPONENTS  0.2000000D+00 0.2000000D+00 0.2000000D+00 0.2000000D+00 0.1142710D+05
EXPONENTS  0.1722350D+04 0.3957460D+03 0.1151390D+03 0.3360260D+02 0.4919010D+01
EXPONENTS  0.5544410D+02 0.1263230D+02 0.3717560D+01 0.5544410D+02 0.1263230D+02
EXPONENTS  0.3717560D+01 0.5544410D+02 0.1263230D+02 0.3717560D+01 0.5544410D+02
EXPONENTS  0.1263230D+02 0.3717560D+01 0.1165450D+01 0.1165450D+01 0.1165450D+01
EXPONENTS  0.1165450D+01 0.3218920D+00 0.3218920D+00 0.3218920D+00 0.3218920D+00
EXPONENTS  0.1076000D+00 0.1076000D+00 0.1076000D+00 0.1076000D+00 0.1750000D+01
EXPONENTS  0.1750000D+01 0.1750000D+01 0.1750000D+01 0.1750000D+01 0.1750000D+01
EXPONENTS  0.1142710D+05 0.1722350D+04 0.3957460D+03 0.1151390D+03 0.3360260D+02
EXPONENTS  0.4919010D+01 0.5544410D+02 0.1263230D+02 0.3717560D+01 0.5544410D+02
EXPONENTS  0.1263230D+02 0.3717560D+01 0.5544410D+02 0.1263230D+02 0.3717560D+01
EXPONENTS  0.5544410D+02 0.1263230D+02 0.3717560D+01 0.1165450D+01 0.1165450D+01
EXPONENTS  0.1165450D+01 0.1165450D+01 0.3218920D+00 0.3218920D+00 0.3218920D+00
EXPONENTS  0.3218920D+00 0.1076000D+00 0.1076000D+00 0.1076000D+00 0.1076000D+00
EXPONENTS  0.1750000D+01 0.1750000D+01 0.1750000D+01 0.1750000D+01 0.1750000D+01
EXPONENTS  0.1750000D+01 0.1142710D+05 0.1722350D+04 0.3957460D+03 0.1151390D+03
EXPONENTS  0.3360260D+02 0.4919010D+01 0.5544410D+02 0.1263230D+02 0.3717560D+01
EXPONENTS  0.5544410D+02 0.1263230D+02 0.3717560D+01 0.5544410D+02 0.1263230D+02
EXPONENTS  0.3717560D+01 0.5544410D+02 0.1263230D+02 0.3717560D+01 0.1165450D+01
EXPONENTS  0.1165450D+01 0.1165450D+01 0.1165450D+01 0.3218920D+00 0.3218920D+00
EXPONENTS  0.3218920D+00 0.3218920D+00 0.1076000D+00 0.1076000D+00 0.1076000D+00
EXPONENTS  0.1076000D+00 0.1750000D+01 0.1750000D+01 0.1750000D+01 0.1750000D+01
EXPONENTS  0.1750000D+01 0.1750000D+01 0.1142710D+05 0.1722350D+04 0.3957460D+03
EXPONENTS  0.1151390D+03 0.3360260D+02 0.4919010D+01 0.5544410D+02 0.1263230D+02
EXPONENTS  0.3717560D+01 0.5544410D+02 0.1263230D+02 0.3717560D+01 0.5544410D+02
EXPONENTS  0.1263230D+02 0.3717560D+01 0.5544410D+02 0.1263230D+02 0.3717560D+01
EXPONENTS  0.1165450D+01 0.1165450D+01 0.1165450D+01 0.1165450D+01 0.3218920D+00
EXPONENTS  0.3218920D+00 0.3218920D+00 0.3218920D+00 0.1076000D+00 0.1076000D+00
EXPONENTS  0.1076000D+00 0.1076000D+00 0.1750000D+01 0.1750000D+01 0.1750000D+01
EXPONENTS  0.1750000D+01 0.1750000D+01 0.1750000D+01 0.9004600D+03 0.1344330D+03
EXPONENTS  0.3043650D+02 0.8626390D+01 0.2483320D+01 0.3031790D+00 0.4868900D+01
EXPONENTS  0.8569240D+00 0.2432270D+00 0.4868900D+01 0.8569240D+00 0.2432270D+00
EXPONENTS  0.4868900D+01 0.8569240D+00 0.2432270D+00 0.4868900D+01 0.8569240D+00
EXPONENTS  0.2432270D+00 0.6350700D-01 0.6350700D-01 0.6350700D-01 0.6350700D-01
EXPONENTS  0.2436830D-01 0.2436830D-01 0.2436830D-01 0.2436830D-01 0.7400000D-02
EXPONENTS  0.7400000D-02 0.7400000D-02 0.7400000D-02 0.2000000D+00 0.2000000D+00
EXPONENTS  0.2000000D+00 0.2000000D+00 0.2000000D+00 0.2000000D+00 0.9004600D+03
EXPONENTS  0.1344330D+03 0.3043650D+02 0.8626390D+01 0.2483320D+01 0.3031790D+00
EXPONENTS  0.4868900D+01 0.8569240D+00 0.2432270D+00 0.4868900D+01 0.8569240D+00
EXPONENTS  0.2432270D+00 0.4868900D+01 0.8569240D+00 0.2432270D+00 0.4868900D+01
EXPONENTS  0.8569240D+00 0.2432270D+00 0.6350700D-01 0.6350700D-01 0.6350700D-01
EXPONENTS  0.6350700D-01 0.2436830D-01 0.2436830D-01 0.2436830D-01 0.2436830D-01
EXPONENTS  0.7400000D-02 0.7400000D-02 0.7400000D-02 0.7400000D-02 0.2000000D+00
EXPONENTS  0.2000000D+00 0.2000000D+00 0.2000000D+00 0.2000000D+00 0.2000000D+00
EXPONENTS  0.1142710D+05 0.1722350D+04 0.3957460D+03 0.1151390D+03 0.3360260D+02
EXPONENTS  0.4919010D+01 0.5544410D+02 0.1263230D+02 0.3717560D+01 0.5544410D+02
EXPONENTS  0.1263230D+02 0.3717560D+01 0.5544410D+02 0.1263230D+02 0.3717560D+01
EXPONENTS  0.5544410D+02 0.1263230D+02 0.3717560D+01 0.1165450D+01 0.1165450D+01
EXPONENTS  0.1165450D+01 0.1165450D+01 0.3218920D+00 0.3218920D+00 0.3218920D+00
EXPONENTS  0.3218920D+00 0.1076000D+00 0.1076000D+00 0.1076000D+00 0.1076000D+00
EXPONENTS  0.1750000D+01 0.1750000D+01 0.1750000D+01 0.1750000D+01 0.1750000D+01
EXPONENTS  0.1750000D+01 0.1142710D+05 0.1722350D+04 0.3957460D+03 0.1151390D+03
EXPONENTS  0.3360260D+02 0.4919010D+01 0.5544410D+02 0.1263230D+02 0.3717560D+01
EXPONENTS  0.5544410D+02 0.1263230D+02 0.3717560D+01 0.5544410D+02 0.1263230D+02
EXPONENTS  0.3717560D+01 0.5544410D+02 0.1263230D+02 0.3717560D+01 0.1165450D+01
EXPONENTS  0.1165450D+01 0.1165450D+01 0.1165450D+01 0.3218920D+00 0.3218920D+00
EXPONENTS  0.3218920D+00 0.3218920D+00 0.1076000D+00 0.1076000D+00 0.1076000D+00
EXPONENTS  0.1076000D+00 0.1750000D+01 0.1750000D+01 0.1750000D+01 0.1750000D+01
EXPONENTS  0.1750000D+01 0.1750000D+01 0.1142710D+05 0.1722350D+04 0.3957460D+03
EXPONENTS  0.1151390D+03 0.3360260D+02 0.4919010D+01 0.5544410D+02 0.1263230D+02
EXPONENTS  0.3717560D+01 0.5544410D+02 0.1263230D+02 0.3717560D+01 0.5544410D+02
EXPONENTS  0.1263230D+02 0.3717560D+01 0.5544410D+02 0.1263230D+02 0.3717560D+01
EXPONENTS  0.1165450D+01 0.1165450D+01 0.1165450D+01 0.1165450D+01 0.3218920D+00
EXPONENTS  0.3218920D+00 0.3218920D+00 0.3218920D+00 0.1076000D+00 0.1076000D+00
EXPONENTS  0.1076000D+00 0.1076000D+00 0.1750000D+01 0.1750000D+01 0.1750000D+01
EXPONENTS  0.1750000D+01 0.1750000D+01 0.1750000D+01 0.1142710D+05 0.1722350D+04
EXPONENTS  0.3957460D+03 0.1151390D+03 0.3360260D+02 0.4919010D+01 0.5544410D+02
EXPONENTS  0.1263230D+02 0.3717560D+01 0.5544410D+02 0.1263230D+02 0.3717560D+01
EXPONENTS  0.5544410D+02 0.1263230D+02 0.3717560D+01 0.5544410D+02 0.1263230D+02
EXPONENTS  0.3717560D+01 0.1165450D+01 0.1165450D+01 0.1165450D+01 0.1165450D+01
EXPONENTS  0.3218920D+00 0.3218920D+00 0.3218920D+00 0.3218920D+00 0.1076000D+00
EXPONENTS  0.1076000D+00 0.1076000D+00 0.1076000D+00 0.1750000D+01 0.1750000D+01
EXPONENTS  0.1750000D+01 0.1750000D+01 0.1750000D+01 0.1750000D+01 0.1142710D+05
EXPONENTS  0.1722350D+04 0.3957460D+03 0.1151390D+03 0.3360260D+02 0.4919010D+01
EXPONENTS  0.5544410D+02 0.1263230D+02 0.3717560D+01 0.5544410D+02 0.1263230D+02
EXPONENTS  0.3717560D+01 0.5544410D+02 0.1263230D+02 0.3717560D+01 0.5544410D+02
EXPONENTS  0.1263230D+02 0.3717560D+01 0.1165450D+01 0.1165450D+01 0.1165450D+01
EXPONENTS  0.1165450D+01 0.3218920D+00 0.3218920D+00 0.3218920D+00 0.3218920D+00
EXPONENTS  0.1076000D+00 0.1076000D+00 0.1076000D+00 0.1076000D+00 0.1750000D+01
EXPONENTS  0.1750000D+01 0.1750000D+01 0.1750000D+01 0.1750000D+01 0.1750000D+01
EXPONENTS  0.1142710D+05 0.1722350D+04 0.3957460D+03 0.1151390D+03 0.3360260D+02
EXPONENTS  0.4919010D+01 0.5544410D+02 0.1263230D+02 0.3717560D+01 0.5544410D+02
EXPONENTS  0.1263230D+02 0.3717560D+01 0.5544410D+02 0.1263230D+02 0.3717560D+01
EXPONENTS  0.5544410D+02 0.1263230D+02 0.3717560D+01 0.1165450D+01 0.1165450D+01
EXPONENTS  0.1165450D+01 0.1165450D+01 0.3218920D+00 0.3218920D+00 0.3218920D+00
EXPONENTS  0.3218920D+00 0.1076000D+00 0.1076000D+00 0.1076000D+00 0.1076000D+00
EXPONENTS  0.1750000D+01 0.1750000D+01 0.1750000D+01 0.1750000D+01 0.1750000D+01
EXPONENTS  0.1750000D+01 0.1142710D+05 0.1722350D+04 0.3957460D+03 0.1151390D+03
EXPONENTS  0.3360260D+02 0.4919010D+01 0.5544410D+02 0.1263230D+02 0.3717560D+01
EXPONENTS  0.5544410D+02 0.1263230D+02 0.3717560D+01 0.5544410D+02 0.1263230D+02
EXPONENTS  0.3717560D+01 0.5544410D+02 0.1263230D+02 0.3717560D+01 0.1165450D+01
EXPONENTS  0.1165450D+01 0.1165450D+01 0.1165450D+01 0.3218920D+00 0.3218920D+00
EXPONENTS  0.3218920D+00 0.3218920D+00 0.1076000D+00 0.1076000D+00 0.1076000D+00
EXPONENTS  0.1076000D+00 0.1750000D+01 0.1750000D+01 0.1750000D+01 0.1750000D+01
EXPONENTS  0.1750000D+01 0.1750000D+01 0.9004600D+03 0.1344330D+03 0.3043650D+02
EXPONENTS  0.8626390D+01 0.2483320D+01 0.3031790D+00 0.4868900D+01 0.8569240D+00
EXPONENTS  0.2432270D+00 0.4868900D+01 0.8569240D+00 0.2432270D+00 0.4868900D+01
EXPONENTS  0.8569240D+00 0.2432270D+00 0.4868900D+01 0.8569240D+00 0.2432270D+00
EXPONENTS  0.6350700D-01 0.6350700D-01 0.6350700D-01 0.6350700D-01 0.2436830D-01
EXPONENTS  0.2436830D-01 0.2436830D-01 0.2436830D-01 0.7400000D-02 0.7400000D-02
EXPONENTS  0.7400000D-02 0.7400000D-02 0.2000000D+00 0.2000000D+00 0.2000000D+00
EXPONENTS  0.2000000D+00 0.2000000D+00 0.2000000D+00 0.9004600D+03 0.1344330D+03
EXPONENTS  0.3043650D+02 0.8626390D+01 0.2483320D+01 0.3031790D+00 0.4868900D+01
EXPONENTS  0.8569240D+00 0.2432270D+00 0.4868900D+01 0.8569240D+00 0.2432270D+00
EXPONENTS  0.4868900D+01 0.8569240D+00 0.2432270D+00 0.4868900D+01 0.8569240D+00
EXPONENTS  0.2432270D+00 0.6350700D-01 0.6350700D-01 0.6350700D-01 0.6350700D-01
EXPONENTS  0.2436830D-01 0.2436830D-01 0.2436830D-01 0.2436830D-01 0.7400000D-02
EXPONENTS  0.7400000D-02 0.7400000D-02 0.7400000D-02 0.2000000D+00 0.2000000D+00
EXPONENTS  0.2000000D+00 0.2000000D+00 0.2000000D+00 0.2000000D+00 0.9004600D+03
EXPONENTS  0.1344330D+03 0.3043650D+02 0.8626390D+01 0.2483320D+01 0.3031790D+00
EXPONENTS  0.4868900D+01 0.8569240D+00 0.2432270D+00 0.4868900D+01 0.8569240D+00
EXPONENTS  0.2432270D+00 0.4868900D+01 0.8569240D+00 0.2432270D+00 0.4868900D+01
EXPONENTS  0.8569240D+00 0.2432270D+00 0.6350700D-01 0.6350700D-01 0.6350700D-01
EXPONENTS  0.6350700D-01 0.2436830D-01 0.2436830D-01 0.2436830D-01 0.2436830D-01
EXPONENTS  0.7400000D-02 0.7400000D-02 0.7400000D-02 0.7400000D-02 0.2000000D+00
EXPONENTS  0.2000000D+00 0.2000000D+00 0.2000000D+00 0.2000000D+00 0.2000000D+00
EXPONENTS  0.9004600D+03 0.1344330D+03 0.3043650D+02 0.8626390D+01 0.2483320D+01
EXPONENTS  0.3031790D+00 0.4868900D+01 0.8569240D+00 0.2432270D+00 0.4868900D+01
EXPONENTS  0.8569240D+00 0.2432270D+00 0.4868900D+01 0.8569240D+00 0.2432270D+00
EXPONENTS  0.4868900D+01 0.8569240D+00 0.2432270D+00 0.6350700D-01 0.6350700D-01
EXPONENTS  0.6350700D-01 0.6350700D-01 0.2436830D-01 0.2436830D-01 0.2436830D-01
EXPONENTS  0.2436830D-01 0.7400000D-02 0.7400000D-02 0.7400000D-02 0.7400000D-02
EXPONENTS  0.2000000D+00 0.2000000D+00 0.2000000D+00 0.2000000D+00 0.2000000D+00
EXPONENTS  0.2000000D+00
MO    1     MO 0.0        OCC NO =    2.0000000  ORB. ENERGY =  -26.453930
 -0.17766059D+00 -0.32792920D+00 -0.53959102D+00 -0.73201565D+00 -0.73383870D+00
 -0.88298760D-01 -0.17957913D+00 -0.47595250D+00  0.69787978D-03 -0.20087316D-03
 -0.21172885D-03 -0.15857394D-03  0.00000000D+00  0.00000000D+00  0.00000000D+00
  0.18308830D-03  0.19298284D-03  0.14453416D-03 -0.11635444D-02  0.15994081D-04
  0.00000000D+00 -0.90452542D-05  0.10882149D-03  0.50680337D-06  0.00000000D+00
 -0.50714106D-05 -0.93687249D-04 -0.50398232D-05  0.00000000D+00  0.25673446D-04
 -0.15954987D-05 -0.33938806D-05  0.49893793D-05  0.00000000D+00  0.77154470D-05
  0.00000000D+00 -0.88625586D-06 -0.16413149D-05 -0.26681680D-05 -0.33341077D-05
 -0.30720356D-05 -0.11434206D-06  0.59340101D-06  0.16292821D-05 -0.18799902D-08
  0.00000000D+00  0.00000000D+00  0.00000000D+00  0.00000000D+00  0.00000000D+00
  0.00000000D+00  0.61475635D-05  0.34176109D-05  0.39244147D-05 -0.91195314D-04
  0.00000000D+00  0.00000000D+00  0.19157602D-04 -0.48557859D-04  0.00000000D+00
  0.00000000D+00  0.33055978D-05 -0.19311689D-04  0.00000000D+00  0.00000000D+00
  0.61197555D-06 -0.24338800D-05  0.19074839D-05  0.52639611D-06  0.00000000D+00
  0.00000000D+00  0.00000000D+00 -0.88625586D-06 -0.16413149D-05 -0.26681680D-05
 -0.33341077D-05 -0.30720356D-05 -0.11434206D-06  0.59340101D-06  0.16292821D-05
 -0.18799902D-08  0.00000000D+00  0.00000000D+00  0.00000000D+00  0.00000000D+00
  0.00000000D+00  0.00000000D+00 -0.61475635D-05 -0.34176109D-05 -0.39244147D-05
 -0.91195314D-04  0.00000000D+00  0.00000000D+00 -0.19157602D-04 -0.48557859D-04
  0.00000000D+00  0.00000000D+00 -0.33055978D-05 -0.19311689D-04  0.00000000D+00
  0.00000000D+00 -0.61197555D-06 -0.24338800D-05  0.19074839D-05  0.52639611D-06
  0.00000000D+00  0.00000000D+00  0.00000000D+00 -0.11350981D-05 -0.21021621D-05
 -0.34173342D-05 -0.42702561D-05 -0.39345996D-05 -0.14644694D-06  0.76001570D-06
  0.20867507D-05 -0.24078524D-08  0.00000000D+00  0.00000000D+00  0.00000000D+00
  0.78736720D-05  0.43772053D-05  0.50263091D-05  0.00000000D+00  0.00000000D+00
  0.00000000D+00 -0.11680107D-03  0.00000000D+00  0.24536659D-04  0.00000000D+00
 -0.62191896D-04  0.00000000D+00  0.42337409D-05  0.00000000D+00 -0.24734006D-04
  0.00000000D+00  0.78380549D-06  0.00000000D+00 -0.23366525D-05  0.67419724D-06
  0.16624553D-05  0.00000000D+00  0.00000000D+00  0.00000000D+00 -0.11350981D-05
 -0.21021621D-05 -0.34173342D-05 -0.42702561D-05 -0.39345996D-05 -0.14644694D-06
  0.76001570D-06  0.20867507D-05 -0.24078524D-08  0.00000000D+00  0.00000000D+00
  0.00000000D+00 -0.78736720D-05 -0.43772053D-05 -0.50263091D-05  0.00000000D+00
  0.00000000D+00  0.00000000D+00 -0.11680107D-03  0.00000000D+00 -0.24536659D-04
  0.00000000D+00 -0.62191896D-04  0.00000000D+00 -0.42337409D-05  0.00000000D+00
 -0.24734006D-04  0.00000000D+00 -0.78380549D-06  0.00000000D+00 -0.23366525D-05
  0.67419724D-06  0.16624553D-05  0.00000000D+00  0.00000000D+00  0.00000000D+00
  0.20213540D-05  0.37434771D-05  0.60855022D-05  0.76043638D-05  0.70066352D-05
  0.26078899D-06 -0.13534168D-05 -0.37160329D-05  0.42878428D-08 -0.14021235D-04
 -0.77948162D-05 -0.89507238D-05  0.00000000D+00  0.00000000D+00  0.00000000D+00
  0.00000000D+00  0.00000000D+00  0.00000000D+00  0.20799638D-03 -0.43694261D-04
  0.00000000D+00  0.00000000D+00  0.11074976D-03 -0.75393388D-05  0.00000000D+00
  0.00000000D+00  0.44045695D-04 -0.13957810D-05  0.00000000D+00  0.00000000D+00
 -0.12005934D-05  0.77142471D-06  0.42916865D-06  0.00000000D+00  0.00000000D+00
  0.00000000D+00  0.20213540D-05  0.37434771D-05  0.60855022D-05  0.76043638D-05
  0.70066352D-05  0.26078899D-06 -0.13534168D-05 -0.37160329D-05  0.42878428D-08
  0.14021235D-04  0.77948162D-05  0.89507238D-05  0.00000000D+00  0.00000000D+00
  0.00000000D+00  0.00000000D+00  0.00000000D+00  0.00000000D+00  0.20799638D-03
  0.43694261D-04  0.00000000D+00  0.00000000D+00  0.11074976D-03  0.75393388D-05
  0.00000000D+00  0.00000000D+00  0.44045695D-04  0.13957810D-05  0.00000000D+00
  0.00000000D+00 -0.12005934D-05  0.77142471D-06  0.42916865D-06  0.00000000D+00
  0.00000000D+00  0.00000000D+00 -0.50912225D-15 -0.94287666D-15 -0.15327670D-14
 -0.19153255D-14 -0.17647745D-14 -0.65685417D-16 -0.77169344D-14 -0.21188139D-13
  0.24448494D-16 -0.43077903D-05 -0.23948270D-05 -0.27499603D-05 -0.24190541D-05
 -0.13448232D-05 -0.15442495D-05 -0.18887362D-05 -0.10500039D-05 -0.12057109D-05
 -0.65717447D-13  0.36943301D-05  0.20745635D-05  0.16197666D-05 -0.87400672D-13
  0.11279110D-05  0.63338221D-06  0.49452880D-06  0.10834670D-14 -0.50119691D-08
 -0.28144930D-08 -0.21974764D-08  0.47178975D-05 -0.26493512D-05 -0.20685463D-05
  0.74664173D-06  0.95628326D-06  0.17029250D-05 -0.50912225D-15 -0.94287666D-15
 -0.15327670D-14 -0.19153255D-14 -0.17647745D-14 -0.65685417D-16 -0.77169344D-14
 -0.21188139D-13  0.24448494D-16 -0.43077903D-05 -0.23948270D-05 -0.27499603D-05
  0.24190541D-05  0.13448232D-05  0.15442495D-05 -0.18887362D-05 -0.10500039D-05
 -0.12057109D-05 -0.65717447D-13  0.36943301D-05 -0.20745635D-05  0.16197666D-05