 (H2O)5-pyramid; HF/6-311++G(d,p);
GAUSSIAN             25 MOL ORBITALS    260 PRIMITIVES       15 NUCLEI
  O    1    (CENTRE  1)   0.00862148  2.75272923 -1.29004618  CHARGE =  8.0
  O    2    (CENTRE  2)   0.00040355  0.29608455  3.35178242  CHARGE =  8.0
  O    3    (CENTRE  3)   0.05159082 -2.76562882 -0.91495417  CHARGE =  8.0
  O    4    (CENTRE  4)  -5.08031485 -0.27558798 -0.63309292  CHARGE =  8.0
  O    5    (CENTRE  5)   5.13813573 -0.19177616 -0.57064545  CHARGE =  8.0
  H    6    (CENTRE  6)   0.01919051 -1.15633834  2.22694151  CHARGE =  1.0
  H    7    (CENTRE  7)   0.04604246 -1.29039871 -1.98699183  CHARGE =  1.0
  H    8    (CENTRE  8)  -0.00076804  2.53384540  0.54015406  CHARGE =  1.0
  H    9    (CENTRE  9)  -3.93202964  1.07654468 -1.04900207  CHARGE =  1.0
  H   10    (CENTRE 10)   4.42362578 -1.84597254 -0.80196551  CHARGE =  1.0
  H   11    (CENTRE 11)   0.18192027  4.53372012 -1.59144041  CHARGE =  1.0
  H   12    (CENTRE 12)   1.54113082  0.13854279  4.29917133  CHARGE =  1.0
  H   13    (CENTRE 13)  -1.63406528 -3.41505413 -1.15037595  CHARGE =  1.0
  H   14    (CENTRE 14)  -5.40733630 -0.00748126  1.13254013  CHARGE =  1.0
  H   15    (CENTRE 15)   3.81479562  0.90602531 -1.16338083  CHARGE =  1.0
CENTRE ASSIGNMENTS    1  1  1  1  1  1  1  1  1  1  1  1  1  1  1  1  1  1  1  1
CENTRE ASSIGNMENTS    1  1  1  1  1  1  1  1  1  1  1  1  1  1  1  1  2  2  2  2
CENTRE ASSIGNMENTS    2  2  2  2  2  2  2  2  2  2  2  2  2  2  2  2  2  2  2  2
CENTRE ASSIGNMENTS    2  2  2  2  2  2  2  2  2  2  2  2  3  3  3  3  3  3  3  3
CENTRE ASSIGNMENTS    3  3  3  3  3  3  3  3  3  3  3  3  3  3  3  3  3  3  3  3
CENTRE ASSIGNMENTS    3  3  3  3  3  3  3  3  4  4  4  4  4  4  4  4  4  4  4  4
CENTRE ASSIGNMENTS    4  4  4  4  4  4  4  4  4  4  4  4  4  4  4  4  4  4  4  4
CENTRE ASSIGNMENTS    4  4  4  4  5  5  5  5  5  5  5  5  5  5  5  5  5  5  5  5
CENTRE ASSIGNMENTS    5  5  5  5  5  5  5  5  5  5  5  5  5  5  5  5  5  5  5  5
CENTRE ASSIGNMENTS    6  6  6  6  6  6  6  6  7  7  7  7  7  7  7  7  8  8  8  8
CENTRE ASSIGNMENTS    8  8  8  8  9  9  9  9  9  9  9  9 10 10 10 10 10 10 10 10
CENTRE ASSIGNMENTS   11 11 11 11 11 11 11 11 12 12 12 12 12 12 12 12 13 13 13 13
CENTRE ASSIGNMENTS   13 13 13 13 14 14 14 14 14 14 14 14 15 15 15 15 15 15 15 15
TYPE ASSIGNMENTS      1  1  1  1  1  1  1  1  1  2  2  2  3  3  3  4  4  4  1  2
TYPE ASSIGNMENTS      3  4  1  2  3  4  1  2  3  4  5  6  7  8  9 10  1  1  1  1
TYPE ASSIGNMENTS      1  1  1  1  1  2  2  2  3  3  3  4  4  4  1  2  3  4  1  2
TYPE ASSIGNMENTS      3  4  1  2  3  4  5  6  7  8  9 10  1  1  1  1  1  1  1  1
TYPE ASSIGNMENTS      1  2  2  2  3  3  3  4  4  4  1  2  3  4  1  2  3  4  1  2
TYPE ASSIGNMENTS      3  4  5  6  7  8  9 10  1  1  1  1  1  1  1  1  1  2  2  2
TYPE ASSIGNMENTS      3  3  3  4  4  4  1  2  3  4  1  2  3  4  1  2  3  4  5  6
TYPE ASSIGNMENTS      7  8  9 10  1  1  1  1  1  1  1  1  1  2  2  2  3  3  3  4
TYPE ASSIGNMENTS      4  4  1  2  3  4  1  2  3  4  1  2  3  4  5  6  7  8  9 10
TYPE ASSIGNMENTS      1  1  1  1  1  2  3  4  1  1  1  1  1  2  3  4  1  1  1  1
TYPE ASSIGNMENTS      1  2  3  4  1  1  1  1  1  2  3  4  1  1  1  1  1  2  3  4
TYPE ASSIGNMENTS      1  1  1  1  1  2  3  4  1  1  1  1  1  2  3  4  1  1  1  1
TYPE ASSIGNMENTS      1  2  3  4  1  1  1  1  1  2  3  4  1  1  1  1  1  2  3  4
EXPONENTS  8.5885000E+03 1.2972300E+03 2.9929600E+02 8.7377100E+01 2.5678900E+01
EXPONENTS  3.7400400E+00 4.2117500E+01 9.6283700E+00 2.8533200E+00 4.2117500E+01
EXPONENTS  9.6283700E+00 2.8533200E+00 4.2117500E+01 9.6283700E+00 2.8533200E+00
EXPONENTS  4.2117500E+01 9.6283700E+00 2.8533200E+00 9.0566100E-01 9.0566100E-01
EXPONENTS  9.0566100E-01 9.0566100E-01 2.5561100E-01 2.5561100E-01 2.5561100E-01
EXPONENTS  2.5561100E-01 8.4500000E-02 8.4500000E-02 8.4500000E-02 8.4500000E-02
EXPONENTS  1.2920000E+00 1.2920000E+00 1.2920000E+00 1.2920000E+00 1.2920000E+00
EXPONENTS  1.2920000E+00 8.5885000E+03 1.2972300E+03 2.9929600E+02 8.7377100E+01
EXPONENTS  2.5678900E+01 3.7400400E+00 4.2117500E+01 9.6283700E+00 2.8533200E+00
EXPONENTS  4.2117500E+01 9.6283700E+00 2.8533200E+00 4.2117500E+01 9.6283700E+00
EXPONENTS  2.8533200E+00 4.2117500E+01 9.6283700E+00 2.8533200E+00 9.0566100E-01
EXPONENTS  9.0566100E-01 9.0566100E-01 9.0566100E-01 2.5561100E-01 2.5561100E-01
EXPONENTS  2.5561100E-01 2.5561100E-01 8.4500000E-02 8.4500000E-02 8.4500000E-02
EXPONENTS  8.4500000E-02 1.2920000E+00 1.2920000E+00 1.2920000E+00 1.2920000E+00
EXPONENTS  1.2920000E+00 1.2920000E+00 8.5885000E+03 1.2972300E+03 2.9929600E+02
EXPONENTS  8.7377100E+01 2.5678900E+01 3.7400400E+00 4.2117500E+01 9.6283700E+00
EXPONENTS  2.8533200E+00 4.2117500E+01 9.6283700E+00 2.8533200E+00 4.2117500E+01
EXPONENTS  9.6283700E+00 2.8533200E+00 4.2117500E+01 9.6283700E+00 2.8533200E+00
EXPONENTS  9.0566100E-01 9.0566100E-01 9.0566100E-01 9.0566100E-01 2.5561100E-01
EXPONENTS  2.5561100E-01 2.5561100E-01 2.5561100E-01 8.4500000E-02 8.4500000E-02
EXPONENTS  8.4500000E-02 8.4500000E-02 1.2920000E+00 1.2920000E+00 1.2920000E+00
EXPONENTS  1.2920000E+00 1.2920000E+00 1.2920000E+00 8.5885000E+03 1.2972300E+03
EXPONENTS  2.9929600E+02 8.7377100E+01 2.5678900E+01 3.7400400E+00 4.2117500E+01
EXPONENTS  9.6283700E+00 2.8533200E+00 4.2117500E+01 9.6283700E+00 2.8533200E+00
EXPONENTS  4.2117500E+01 9.6283700E+00 2.8533200E+00 4.2117500E+01 9.6283700E+00
EXPONENTS  2.8533200E+00 9.0566100E-01 9.0566100E-01 9.0566100E-01 9.0566100E-01
EXPONENTS  2.5561100E-01 2.5561100E-01 2.5561100E-01 2.5561100E-01 8.4500000E-02
EXPONENTS  8.4500000E-02 8.4500000E-02 8.4500000E-02 1.2920000E+00 1.2920000E+00
EXPONENTS  1.2920000E+00 1.2920000E+00 1.2920000E+00 1.2920000E+00 8.5885000E+03
EXPONENTS  1.2972300E+03 2.9929600E+02 8.7377100E+01 2.5678900E+01 3.7400400E+00
EXPONENTS  4.2117500E+01 9.6283700E+00 2.8533200E+00 4.2117500E+01 9.6283700E+00
EXPONENTS  2.8533200E+00 4.2117500E+01 9.6283700E+00 2.8533200E+00 4.2117500E+01
EXPONENTS  9.6283700E+00 2.8533200E+00 9.0566100E-01 9.0566100E-01 9.0566100E-01
EXPONENTS  9.0566100E-01 2.5561100E-01 2.5561100E-01 2.5561100E-01 2.5561100E-01
EXPONENTS  8.4500000E-02 8.4500000E-02 8.4500000E-02 8.4500000E-02 1.2920000E+00
EXPONENTS  1.2920000E+00 1.2920000E+00 1.2920000E+00 1.2920000E+00 1.2920000E+00
EXPONENTS  3.3865000E+01 5.0947900E+00 1.1587900E+00 3.2584000E-01 1.0274100E-01
EXPONENTS  7.5000000E-01 7.5000000E-01 7.5000000E-01 3.3865000E+01 5.0947900E+00
EXPONENTS  1.1587900E+00 3.2584000E-01 1.0274100E-01 7.5000000E-01 7.5000000E-01
EXPONENTS  7.5000000E-01 3.3865000E+01 5.0947900E+00 1.1587900E+00 3.2584000E-01
EXPONENTS  1.0274100E-01 7.5000000E-01 7.5000000E-01 7.5000000E-01 3.3865000E+01
EXPONENTS  5.0947900E+00 1.1587900E+00 3.2584000E-01 1.0274100E-01 7.5000000E-01
EXPONENTS  7.5000000E-01 7.5000000E-01 3.3865000E+01 5.0947900E+00 1.1587900E+00
EXPONENTS  3.2584000E-01 1.0274100E-01 7.5000000E-01 7.5000000E-01 7.5000000E-01
EXPONENTS  3.3865000E+01 5.0947900E+00 1.1587900E+00 3.2584000E-01 1.0274100E-01
EXPONENTS  7.5000000E-01 7.5000000E-01 7.5000000E-01 3.3865000E+01 5.0947900E+00
EXPONENTS  1.1587900E+00 3.2584000E-01 1.0274100E-01 7.5000000E-01 7.5000000E-01
EXPONENTS  7.5000000E-01 3.3865000E+01 5.0947900E+00 1.1587900E+00 3.2584000E-01
EXPONENTS  1.0274100E-01 7.5000000E-01 7.5000000E-01 7.5000000E-01 3.3865000E+01
EXPONENTS  5.0947900E+00 1.1587900E+00 3.2584000E-01 1.0274100E-01 7.5000000E-01
EXPONENTS  7.5000000E-01 7.5000000E-01 3.3865000E+01 5.0947900E+00 1.1587900E+00
EXPONENTS  3.2584000E-01 1.0274100E-01 7.5000000E-01 7.5000000E-01 7.5000000E-01
MO  1                     OCC NO =   2.00000000 ORB. ENERGY = -20.59303019
  6.64512684E-01  1.22214144E+00  2.00038375E+00  2.69577081E+00  2.66669150E+00
  2.96810375E-01  6.32938788E-01  1.69187421E+00 -2.41650039E-03  6.40142914E-04
  6.57263950E-04  4.96723059E-04  6.52866354E-03  6.70327687E-03  5.06595895E-03
  5.50484013E-03  5.65207064E-03  4.27151652E-03  3.75694281E-03 -5.90017357E-05
 -6.46667872E-04 -4.81628886E-04 -2.86117569E-04  6.24259060E-06  8.21661009E-05
  2.13018317E-05  1.98638569E-04 -2.97622212E-06 -4.49523385E-05  2.97350748E-05
  2.61625396E-04 -1.39139712E-04 -1.22485684E-04 -7.90863001E-05  2.32584834E-05
  1.99728506E-04 -1.15388923E-04 -2.12218048E-04 -3.47355487E-04 -4.68105573E-04
 -4.63056113E-04 -5.15394669E-05 -1.12077658E-04 -2.99588686E-04  4.27901893E-07
 -6.48670195E-08 -6.66019299E-08 -5.03339858E-08  8.65397565E-06  8.88543183E-06
  6.71510871E-06  2.57386190E-05  2.64270150E-05  1.99720489E-05  1.16706723E-05
 -2.40043629E-06 -1.93369876E-05 -1.54825439E-05 -1.45973695E-05 -3.07966421E-06
  1.08326363E-05  1.50055266E-05 -2.06438842E-05  1.13444795E-06  4.08776407E-06
  5.77513807E-06  2.37876072E-06  4.98928339E-06 -7.36804411E-06  7.59372117E-06
 -2.35518204E-06  5.18281105E-06 -1.14878830E-04 -2.11279907E-04 -3.45819951E-04
 -4.66036244E-04 -4.61009106E-04 -5.13116292E-05 -1.11661400E-04 -2.98476009E-04
  4.26312659E-07 -3.70419834E-06 -3.80326952E-06 -2.87429680E-06 -1.63582784E-05
 -1.67957911E-05 -1.26933125E-05 -1.97257850E-05 -2.02533638E-05 -1.53063512E-05
  1.19203729E-05  4.85370092E-06  1.00884052E-05  2.15236794E-05 -1.91657732E-05
  6.14387793E-06 -2.01809425E-05 -7.55559341E-06  2.72204500E-05  2.66429916E-07
  4.64451079E-06 -7.36572004E-06 -1.21829171E-06 -2.01906220E-05  2.14089137E-05
 -2.05561744E-07 -5.15310838E-06  5.41364356E-06 -4.45776752E-05 -8.19852284E-05
 -1.34192257E-04 -1.80841086E-04 -1.78890352E-04 -1.99110067E-05 -4.36252151E-05
 -1.16612187E-04  1.66556942E-07 -2.67233908E-05 -2.74381251E-05 -2.07361889E-05
 -5.14654161E-06 -5.28418919E-06 -3.99349244E-06 -6.96843268E-07 -7.15480791E-07
 -5.40720067E-07  5.85211675E-06  1.71795850E-05 -1.00001442E-06 -4.17333160E-08
 -8.36389194E-06 -9.91247039E-06 -3.64231938E-06 -1.02562594E-05  2.41137721E-05
  1.47433640E-06  4.10500905E-06  1.22333446E-06  2.55334149E-07  9.13604724E-06
 -9.39138139E-06 -1.60194585E-05  4.30017735E-07 -1.13805696E-05 -2.62548552E-05
 -4.82867330E-05 -7.90350388E-05 -1.06509739E-04 -1.05360817E-04 -1.17269596E-05
 -2.66980175E-05 -7.13650168E-05  1.01930504E-07  2.59245343E-05  2.66179027E-05
  2.01163110E-05 -1.38817167E-05 -1.42529922E-05 -1.07716084E-05 -3.34415145E-06
 -3.43359294E-06 -2.59491607E-06  7.60397913E-06 -1.53317670E-05  8.82536187E-06
  4.40325292E-06 -9.06009609E-06  1.37883594E-05  4.97456079E-06 -7.66773654E-07
  1.81147114E-05 -2.57111355E-06  1.02760487E-06 -1.60986401E-06 -7.21457119E-06
 -6.15743018E-06  1.33720014E-05 -1.49912313E-05 -3.05808846E-06 -8.36148160E-06
  2.19324176E-06  3.95629522E-06  5.83262198E-06  1.14267547E-06  3.06477716E-05
  4.12895016E-07 -1.00583527E-05  7.34312051E-06 -5.68560014E-06 -1.02560115E-05
 -1.51200643E-05  3.06690133E-05 -8.97902619E-05  4.41374987E-08 -2.46402442E-06
  8.13255253E-06  4.38683251E-05  7.91321997E-05  1.16661721E-04  7.16791119E-05
 -1.40106062E-04  1.97811428E-06  3.74629780E-05 -9.62135683E-05 -3.28259146E-06
 -5.92132666E-06 -8.72959628E-06  1.17407815E-05 -5.36714957E-05 -5.04154036E-06
  4.78958265E-06  3.03783193E-06 -3.21491154E-07 -5.79924174E-07 -8.54961093E-07
  1.65486881E-05 -4.42767204E-06 -6.71978437E-07  1.31016697E-05  1.50541890E-07
  5.06786804E-05  9.14171091E-05  1.34772915E-04  2.60385320E-05  2.64028927E-05
 -9.51930196E-06 -9.56575644E-05  3.34383069E-05  1.34103426E-07  2.41903448E-07
  3.56629445E-07  5.19938371E-06 -4.42732934E-06 -1.18860533E-07 -4.76981378E-06
 -1.15702054E-05  7.20441985E-08  1.29957456E-07  1.91591544E-07  1.00798725E-05
  2.23149349E-06  4.38674810E-06  1.68049002E-05  2.69732441E-06 -3.62632369E-07
 -6.54137057E-07 -9.64370443E-07  1.63156732E-05 -7.72261109E-06  8.62371340E-06
  6.28944384E-07 -1.05755682E-05 -3.20091650E-06 -5.77399668E-06 -8.51239305E-06
  8.54644968E-06 -4.44408154E-05 -3.00536716E-06  1.65099028E-06 -3.98961486E-06
MO  2                     OCC NO =   2.00000000 ORB. ENERGY = -20.58281142
 -1.15551956E-04 -2.12517890E-04 -3.47846264E-04 -4.68766958E-04 -4.63710364E-04
 -5.16122869E-05 -1.06555454E-04 -2.84827582E-04  4.06818639E-07 -6.18297253E-07
 -6.34834013E-07 -4.79771776E-07 -1.85143817E-05 -1.90095608E-05 -1.43663549E-05
  6.96838903E-06  7.15476310E-06  5.40716681E-06 -1.62880187E-05  4.73217060E-08
  1.04125963E-05 -1.10875731E-05  1.52207942E-05  3.39756425E-07 -1.54887747E-05
  1.44864510E-05  9.10130788E-06 -1.40538086E-06 -2.90608525E-06  3.89861301E-06
 -5.21146081E-06 -7.52364895E-07  5.96382570E-06 -3.86098633E-06  1.11505683E-06
 -4.59135934E-06  2.36887385E-04  4.35672481E-04  7.13102529E-04  9.60996100E-04
  9.50629824E-04  1.05807813E-04  2.30496731E-04  6.16128260E-04 -8.80014704E-07
  8.03559860E-09  8.25051587E-09  6.23527501E-09 -3.15506464E-05 -3.23944888E-05
 -2.44819293E-05 -4.52913621E-05 -4.65027089E-05 -3.51441271E-05 -1.58618393E-05
  3.62162851E-06  2.14221642E-05  3.71634502E-05  8.70286497E-06  6.34816400E-06
 -3.84503795E-06 -1.87530768E-05 -2.43973319E-05  3.32239533E-06  5.83021706E-06
  3.81671188E-06  1.90712041E-05 -3.50235763E-05  1.59523722E-05 -1.35123779E-05
  8.41755849E-06 -1.65985606E-05 -6.64511993E-01 -1.22214017E+00 -2.00038167E+00
 -2.69576801E+00 -2.66668873E+00 -2.96810066E-01 -6.32939733E-01 -1.69187673E+00
  2.41650399E-03  6.64822682E-03  6.82603795E-03  5.15873486E-03 -3.33647602E-03
 -3.42571223E-03 -2.58896027E-03  4.87386067E-03  5.00421522E-03  3.78190390E-03
 -3.76389463E-03 -6.17164576E-04  2.63063729E-04 -5.04502710E-04  3.17114823E-04
  4.12108383E-05  1.66374779E-05  4.55243347E-05 -2.62844140E-04  9.30141223E-07
 -4.28497791E-05 -3.00471122E-06  6.26914816E-05  6.13045356E-05 -1.23996017E-04
  3.45509750E-04  9.89658738E-05 -4.31366878E-04  9.07680842E-05  1.66936523E-04
  2.73239330E-04  3.68224652E-04  3.64252609E-04  4.05423549E-05  8.64510272E-05
  2.31087533E-04 -3.30061840E-07  2.74937235E-05  2.82290609E-05  2.13339336E-05
 -1.30589685E-05 -1.34082391E-05 -1.01331916E-05 -5.09843676E-06 -5.23479775E-06
 -3.95616518E-06 -2.47338753E-06 -1.69581660E-05  7.15064830E-06  6.78883496E-06
  6.84671357E-06  1.39230591E-05  4.70676227E-06  6.02374251E-06  5.87983136E-05
  9.44688596E-06  3.77021647E-06  4.93067074E-06  9.91595344E-07 -5.77281770E-06
  4.78122236E-06  1.20066758E-05 -7.70151438E-07  2.20851260E-06  2.95945256E-05
  5.44289025E-05  8.90884546E-05  1.20057992E-04  1.18762925E-04  1.32186525E-05
  2.83101412E-05  7.56742969E-05 -1.08085440E-07 -1.59923900E-05 -1.64201168E-05
 -1.24093991E-05  7.28117610E-06  7.47591587E-06  5.64987597E-06  5.34605994E-06
  5.48904377E-06  4.14830999E-06 -2.29715780E-06  9.87671348E-06 -1.27805440E-05
 -4.76916544E-06  2.71822451E-06 -1.01637718E-05 -1.32006630E-06  8.45754728E-07
 -7.78917449E-06 -1.91526232E-06  4.40309646E-06  3.20303358E-07  1.96737491E-06
  8.77162094E-06 -1.07389959E-05  1.79596759E-05  8.07159491E-07 -1.27181758E-06
  9.95765394E-06  1.79621870E-05  2.64809983E-05 -4.52575416E-05  1.04373253E-04
 -4.08282514E-06  4.02215664E-05  5.76375671E-05 -4.80007790E-05 -8.65865571E-05
 -1.27651408E-04 -8.89882728E-05  1.54159199E-04  1.63946155E-05  1.08987365E-04
 -7.96108965E-05 -1.55161155E-06 -2.79888586E-06 -4.12629551E-06 -6.71642092E-06
 -1.78633077E-05  2.92666816E-07 -9.44064462E-08  3.02593077E-06 -1.08035100E-06
 -1.94879907E-06 -2.87304351E-06 -8.75370958E-06 -3.46534875E-05  8.68831350E-06
  3.88514627E-06 -5.44097306E-06  3.35173237E-06  6.04604699E-06  8.91346692E-06
 -1.43047369E-05  4.30146322E-05 -1.23354917E-05 -1.03346316E-05  2.41998979E-06
 -6.80545705E-07 -1.22760736E-06 -1.80981682E-06  8.10001375E-06  7.07538226E-06
 -2.29409410E-07 -5.94617273E-06 -7.83839045E-06  3.60101639E-07  6.49571981E-07
  9.57640318E-07 -1.24210345E-05 -7.63462572E-06  5.05736359E-06  3.23679934E-06
  1.62187441E-05 -5.06907142E-05 -9.14388162E-05 -1.34804917E-04 -4.91195360E-05
  3.83096084E-05 -1.09689617E-04 -6.08016678E-05 -9.05233331E-06  1.27534726E-06
  2.30054449E-06  3.39160898E-06 -1.76327043E-05 -2.06894237E-05 -1.41133761E-05
  2.02618456E-07  1.19040479E-05 -2.57439622E-06 -4.64384350E-06 -6.84624937E-06
  7.18690236E-06 -7.16627225E-06 -9.52621620E-06 -9.10466071E-06  3.24536427E-06
MO  3                     OCC NO =   2.00000000 ORB. ENERGY = -20.57103732
 -1.16824498E-04 -2.14858291E-04 -3.51676999E-04 -4.73929359E-04 -4.68817078E-04
 -5.21806787E-05 -1.07765310E-04 -2.88061581E-04  4.11437753E-07 -8.54664812E-08
 -8.77523375E-08 -6.63182721E-08 -1.62840217E-05 -1.67195484E-05 -1.26356926E-05
  3.66607228E-05  3.76412375E-05  2.84471263E-05 -1.29945408E-05  1.25739063E-06
  1.60913583E-05 -2.69637206E-05  7.26551507E-06 -4.61646207E-07 -1.51102741E-05
  1.55233913E-05  1.65275003E-05  1.85568823E-06  7.30823292E-06 -1.88419674E-06
  2.84809469E-06  1.62354066E-05 -1.90835012E-05  2.68947194E-06 -3.73470115E-07
 -3.12628967E-05 -6.64511953E-01 -1.22214010E+00 -2.00038155E+00 -2.69576785E+00
 -2.66668857E+00 -2.96810048E-01 -6.32943772E-01 -1.69188753E+00  2.41651942E-03
 -6.44199136E-03 -6.61428659E-03 -4.99870511E-03  5.70954796E-03  5.86225351E-03
  4.43036088E-03  5.89457585E-04  6.05223009E-04  4.57393448E-04 -3.73813995E-03
  5.80949499E-04 -5.38780902E-04  8.25228390E-06  2.64081145E-04 -3.64119968E-05
  3.17276090E-05 -3.29339637E-05 -1.95342419E-04 -4.77836647E-06  1.03238756E-05
  2.62398747E-05  3.25465999E-05 -9.55307982E-06 -2.29935200E-05 -5.62807884E-05
  4.15823026E-04  3.37868034E-04 -2.38341544E-04 -4.38346904E-04 -7.17479987E-04
 -9.66895279E-04 -9.56465369E-04 -1.06457325E-04 -2.26444960E-04 -6.05297693E-04
  8.64545426E-07  5.27379324E-06  5.41484425E-06  4.09223417E-06  8.80997658E-06
  9.04560510E-06  6.83615864E-06  9.58816370E-06  9.84460534E-06  7.43999800E-06
 -8.52804452E-06 -2.42642719E-06 -2.79980939E-06  6.66951341E-06  1.55319209E-05
 -4.08574534E-06  1.16853853E-05 -2.52036528E-06 -4.30800631E-06  1.27965603E-06
 -1.03690554E-06 -1.03106861E-06 -5.53628546E-06  5.05633077E-06  4.79954696E-07
 -1.51628091E-07  9.20665014E-07  3.54179951E-06  1.11742238E-04  2.05511232E-04
  3.36377865E-04  4.53311836E-04  4.48421956E-04  4.99106435E-05  1.06788502E-04
  2.85450529E-04 -4.07708393E-07  1.79111205E-05  1.83901650E-05  1.38982505E-05
  8.63123642E-06  8.86208441E-06  6.69746405E-06  4.95258194E-06  5.08504194E-06
  3.84298818E-06 -3.30984002E-07 -1.32931049E-05 -7.65189739E-06 -1.37122552E-06
 -4.17816785E-06  3.00305588E-06  3.95993352E-06  2.30001879E-06  1.21156035E-05
  6.04310257E-06  1.64167173E-06 -1.56131139E-06  1.69800823E-06 -4.06107208E-06
  2.36306385E-06  6.81854773E-08 -5.31933864E-06 -6.25358338E-07  2.09293765E-05
  3.84923553E-05  6.30037404E-05  8.49055309E-05  8.39896540E-05  9.34828820E-06
  1.95479555E-05  5.22525754E-05 -7.46322440E-08 -1.56850054E-05 -1.61045110E-05
 -1.21708820E-05  6.20606584E-06  6.37205109E-06  4.81563717E-06  1.11592874E-06
  1.14577498E-06  8.65912169E-07  1.79212062E-06  1.12009791E-05 -6.69496916E-06
  2.63781124E-06 -6.09044741E-06 -6.75744879E-06 -6.73266202E-07 -3.34787273E-06
  5.66676127E-05 -1.12948727E-05 -6.30794167E-07  1.44395201E-07  3.44124886E-06
  2.04401697E-06 -5.48526582E-06  7.92479258E-06 -2.18965041E-06 -5.78042531E-07
 -4.17544275E-05 -7.53190300E-05 -1.11040103E-04 -9.46774449E-05  1.24996969E-04
 -1.54486829E-05 -9.01217202E-05 -7.27527907E-05 -1.11200130E-06 -2.00589169E-06
 -2.95721308E-06 -6.08838036E-06 -2.25057092E-06  4.21311198E-07  7.54831345E-06
 -4.83907582E-06  9.33429982E-06  1.68377451E-05  2.48232745E-05 -4.26551559E-05
  4.81603462E-05  1.56212647E-06  3.78942544E-05 -4.82163966E-05 -1.24353696E-06
 -2.24316325E-06 -3.30701390E-06  3.96362977E-06 -1.86636206E-05  2.77538521E-06
 -5.09243877E-06  5.04731762E-06  6.83375639E-07  1.23271215E-06  1.81734264E-06
 -6.54579875E-06 -2.55464389E-05  2.81112195E-06 -6.38042719E-06 -1.14927933E-06
  5.17583817E-07  9.33647362E-07  1.37644231E-06  1.40443128E-06 -2.81168939E-05
 -8.04246373E-07  5.83225067E-06 -1.47179058E-05 -4.93340528E-05 -8.89915928E-05
 -1.31197065E-04 -5.03330523E-05  4.27601921E-05  8.73921206E-05  6.61993896E-06
  6.98823377E-05 -2.38485747E-07 -4.30194262E-07 -6.34219735E-07 -4.90037033E-06
 -1.35241940E-06 -1.71776884E-06 -9.19930784E-06 -1.84336266E-06  7.01888123E-07
  1.26610603E-06  1.86657402E-06 -1.02482996E-05  1.81681275E-05  1.21272179E-05
 -6.68574904E-08  2.96160320E-06 -1.21999479E-06 -2.20069655E-06 -3.24440678E-06
  3.79754833E-06 -3.95423463E-05  2.38533195E-07 -1.37177823E-06  5.77293643E-06
MO  4                     OCC NO =   2.00000000 ORB. ENERGY = -20.56819850
 -4.51129994E-05 -8.29697722E-05 -1.35803745E-04 -1.83012770E-04 -1.81038609E-04
 -2.01501139E-05 -4.31415112E-05 -1.15319225E-04  1.64710207E-07 -5.78161110E-06
 -5.93624403E-06 -4.48627875E-06 -7.68224319E-06 -7.88770975E-06 -5.96108659E-06
  1.83697253E-06  1.88610355E-06  1.42541078E-06  5.92685468E-07 -2.08003843E-06
  3.51284027E-06 -1.84281125E-06 -1.73888239E-06 -6.02413568E-09 -5.40538602E-06
  4.19560734E-06 -7.47981435E-06  2.06963592E-06  1.77910736E-07 -1.19564629E-06
  2.04832655E-06 -6.55607530E-06  4.50774875E-06  4.75172005E-06 -2.99038821E-06
 -3.80811999E-07 -1.11860187E-04 -2.05728157E-04 -3.36732925E-04 -4.53790324E-04
 -4.48895283E-04 -4.99633261E-05 -1.07140903E-04 -2.86392513E-04  4.09053827E-07
 -2.93811529E-06 -3.01669708E-06 -2.27984967E-06  1.57778707E-06  1.61998601E-06
  1.22429414E-06 -6.38772378E-06 -6.55856758E-06 -4.95659582E-06  3.45348984E-06
 -2.00674166E-06 -4.42146015E-09  4.05427893E-06 -1.12239033E-05  1.67448429E-06
  5.28904847E-07 -1.07342666E-06 -2.70321841E-05 -1.09703867E-05  2.51090556E-06
 -5.27495776E-06 -1.09342042E-06  1.18930703E-06 -9.58866099E-08 -3.36041694E-06
 -7.45689777E-06 -7.61600598E-07 -9.13905481E-05 -1.68081330E-04 -2.75113134E-04
 -3.70749841E-04 -3.66750558E-04 -4.08203838E-05 -8.71128618E-05 -2.32856647E-04
  3.32588662E-07  1.01005507E-05  1.03706965E-05  7.83758803E-06  7.54593322E-06
  7.74775408E-06  5.85531597E-06  6.24166645E-06  6.40860386E-06  4.84326169E-06
 -2.93812641E-06 -1.71611204E-05 -6.59116050E-06 -3.87609332E-06  9.30037891E-06
 -8.82455848E-07  2.28272575E-06  4.61813631E-07 -3.26620816E-05 -3.64073410E-07
 -1.33895205E-06  3.89874756E-07  1.29606461E-05 -2.58005035E-06 -1.03805957E-05
  7.74297594E-06 -1.80841853E-06  2.64252194E-06 -6.64523385E-01 -1.22216112E+00
 -2.00041596E+00 -2.69581422E+00 -2.66673444E+00 -2.96815154E-01 -6.32958555E-01
 -1.69192705E+00  2.41657586E-03 -3.48620089E-03 -3.57944159E-03 -2.70514026E-03
 -6.58974407E-03 -6.76599104E-03 -5.11335479E-03 -5.75408688E-03 -5.90798365E-03
 -4.46492115E-03 -3.68902136E-03  2.88986360E-04  6.13765185E-04  5.14454551E-04
  2.52588122E-04  2.94317037E-06 -3.49764395E-05 -2.06223173E-05 -2.01423919E-04
 -2.05937595E-05 -1.22967986E-05 -1.17306232E-05 -1.31825079E-04 -4.10931562E-05
  1.72918235E-04  4.15035659E-04 -3.27564155E-04 -3.00571581E-05  5.92568056E-07
  1.08982416E-06  1.78380871E-06  2.40390847E-06  2.37797748E-06  2.64675680E-07
  7.34913957E-07  1.96445848E-06 -2.80583193E-09 -3.07092597E-08 -3.15305987E-08
 -2.38290498E-08  4.85214520E-06  4.98191896E-06  3.76505364E-06  2.09380980E-06
  2.14981009E-06  1.62470533E-06 -1.40506073E-06 -2.73103276E-07 -4.66652325E-06
 -1.97228410E-06  4.06216213E-06 -1.81074690E-06  7.15347082E-07  6.76200015E-07
 -1.03111039E-05  1.08028516E-06  3.20095656E-06  2.18172955E-07 -3.83475235E-07
  2.00632725E-06 -1.62285202E-06 -6.26019441E-07  4.55082771E-07  9.52384945E-07
  8.69554200E-07  1.56855172E-06  2.31245868E-06 -7.61643336E-06  2.78285672E-05
 -7.15683301E-06  5.72770130E-06  7.33130606E-07 -4.90400359E-07 -8.84612281E-07
 -1.30415167E-06 -1.15698873E-06  1.73981825E-05 -8.77591708E-06 -1.37084702E-06
  7.97996872E-07  9.83690632E-07  1.77443756E-06  2.61598867E-06 -1.01756025E-05
  8.48677400E-06  1.78308179E-06  2.89373119E-06  2.13251043E-07 -4.53916874E-05
 -8.18801280E-05 -1.20712891E-04 -9.18117785E-05  1.18900890E-04  7.66761997E-05
  8.38699843E-05 -4.90449714E-05  6.76351995E-07  1.22004250E-06  1.79866424E-06
 -6.49474080E-06  2.03843238E-05 -3.80437804E-06 -1.47369109E-06  2.19239708E-08
 -3.99906239E-07 -7.21373801E-07 -1.06349513E-06  7.23865734E-06 -1.04043300E-06
 -2.25492990E-07 -3.43925736E-06 -1.67434157E-06  4.25911424E-07  7.68283444E-07
  1.13265231E-06 -2.01520639E-06  3.26330116E-05 -6.17715745E-06  3.66766525E-06
 -4.99719850E-07  2.60627880E-06  4.70135511E-06  6.93103664E-06 -1.03004804E-05
  3.30032146E-05 -1.93118319E-05  4.90630503E-06  3.30129652E-06 -4.86279718E-05
 -8.77179234E-05 -1.29319340E-04 -7.63791250E-05  8.37232208E-05 -3.51637859E-05
  2.10686506E-07  1.17111803E-04 -2.14509762E-07 -3.86945005E-07 -5.70458931E-07
  2.12059023E-07 -4.03531817E-06 -5.02046466E-07  1.16011263E-06 -9.88206082E-07
MO  5                     OCC NO =   2.00000000 ORB. ENERGY = -20.54763611
  2.67889957E-05  4.92690998E-05  8.06429628E-05  1.08676620E-04  1.07504324E-04
  1.19655381E-05  2.57869271E-05  6.89296308E-05 -9.84520473E-08 -2.84093263E-06
 -2.91691521E-06 -2.20444016E-06  7.29981521E-06  7.49505348E-06  5.66433910E-06
 -7.68621404E-06 -7.89178681E-06 -5.96416779E-06 -2.61455242E-08 -4.81120134E-06
 -3.59598276E-06  7.96407250E-06 -1.65874753E-06  2.11598248E-06  1.24783280E-06
 -6.62771803E-06 -3.86615449E-05 -2.91260347E-06 -9.39140235E-06 -4.03885831E-06
 -7.98551095E-07  1.76302667E-06 -9.64475577E-07  8.12435180E-07 -3.28525443E-06
  2.99514211E-06  2.10886198E-05  3.87852282E-05  6.34831107E-05  8.55515432E-05
  8.46286977E-05  9.41941559E-06  2.10513987E-05  5.62713475E-05 -8.03722477E-08
 -6.89611555E-06 -7.08055662E-06 -5.35108573E-06  2.59091352E-06  2.66020918E-06
  2.01043620E-06  7.58915299E-06  7.79212979E-06  5.88885263E-06 -3.95413831E-06
  2.58713678E-06 -2.47217558E-06 -4.58726229E-06  7.38405837E-06 -3.66002009E-06
  3.94642377E-06  1.98042526E-06 -3.45920938E-05 -7.02510709E-07  2.62081823E-06
  1.04179068E-05  1.20774905E-06  2.94091560E-06 -4.14866465E-06  3.59831577E-06
 -2.28514604E-06 -4.40760932E-06  3.01528512E-05  5.54557495E-05  9.07691832E-05
  1.22322987E-04  1.21003487E-04  1.34680335E-05  2.93555954E-05  7.84688435E-05
 -1.12076885E-07 -7.13935489E-06 -7.33030156E-06 -5.53982888E-06 -6.07974578E-06
 -6.24235251E-06 -4.71761829E-06 -7.97703826E-06 -8.19038930E-06 -6.18983473E-06
 -3.46864802E-06 -1.49124318E-06  2.88874369E-06  6.58434193E-06  8.35433392E-06
 -5.56740365E-07 -4.90310172E-06 -1.62484584E-06  1.52602195E-05 -9.50876439E-06
 -3.73767825E-06 -3.77207728E-06  5.30686996E-06 -2.93417924E-06 -2.37269072E-06
  2.03523958E-06  8.92493611E-07  6.33449341E-06  5.93284698E-07  1.09114217E-06
  1.78596601E-06  2.40681571E-06  2.38085337E-06  2.64995775E-07 -6.30815098E-09
 -1.68619749E-08  2.40839234E-11  1.55031239E-06  1.59177650E-06  1.20297498E-06
  6.57701934E-08  6.75292597E-08  5.10348095E-08  4.06271236E-07  4.17137223E-07
  3.15248809E-07  2.74055815E-06 -1.25604153E-06 -6.27019549E-09 -1.87375094E-07
 -5.01198179E-06  1.34334193E-07  4.47527065E-07 -2.66110635E-07  1.23320452E-05
  1.93781012E-06  8.16540454E-07  1.47156718E-06  8.30141530E-07 -2.64026519E-07
 -5.66115011E-07 -2.91748727E-08 -1.79979727E-07 -6.47437552E-08  6.64524192E-01
  1.22216260E+00  2.00041839E+00  2.69581750E+00  2.66673768E+00  2.96815515E-01
  6.32961473E-01  1.69193485E+00 -2.41658700E-03 -8.53396196E-03 -8.76220829E-03
 -6.62198330E-03 -2.37658562E-03 -2.44014894E-03 -1.84412707E-03 -3.41302348E-03
 -3.50430700E-03 -2.64835778E-03  3.67614317E-03  7.57508396E-04  2.14744206E-04
  3.17509104E-04 -2.36201236E-04 -2.55536565E-05 -1.06926747E-05 -2.00149864E-05
  1.41779184E-04 -1.79522522E-05 -1.74216748E-06 -1.01074264E-06  1.18861507E-05
 -2.63170167E-04  2.51284016E-04  8.34944154E-05 -2.77877121E-04  7.88036483E-05
 -6.82975085E-07 -1.23198961E-06 -1.81627742E-06  6.69924983E-06  3.27066289E-05
  1.69311726E-06  1.96688030E-06 -2.44736211E-06 -2.06490107E-06 -3.72478692E-06
 -5.49131773E-06  1.66496984E-05 -2.06812905E-05  5.45549891E-07  9.13943920E-07
  5.65038609E-07  6.70903199E-07  1.21021365E-06  1.78417392E-06 -1.08641296E-08
  3.91923422E-05 -2.13674076E-07 -2.64555507E-06 -1.23833609E-06  4.34993725E-07
  7.84666619E-07  1.15680542E-06 -2.57015002E-06 -5.90356166E-06 -1.04477108E-06
 -1.73317308E-08  3.07817490E-07  4.73602393E-05  8.54311147E-05  1.25947982E-04
  7.75322083E-05 -5.73608643E-05  2.10864160E-05  1.19494249E-04  8.00072024E-06
  8.51461097E-08  1.53591434E-07  2.26434258E-07 -2.01729299E-06  2.94966722E-05
  4.20386702E-06 -3.77851916E-06  3.60710366E-06 -1.81188621E-06 -3.26838422E-06
 -4.81845984E-06  1.51465923E-05 -1.38776649E-05 -1.79460244E-06 -4.21167322E-07
  4.61346710E-06 -2.68533501E-07 -4.84396124E-07 -7.14127568E-07  1.03287226E-06
 -2.81847126E-05 -7.56989809E-06  6.85492849E-07 -1.01700015E-06  9.04181481E-08
  1.63101439E-07  2.40454513E-07  1.36579154E-07 -5.43879339E-06 -2.82742996E-07
  6.62322658E-07 -1.97471719E-07  4.71012783E-05  8.49639861E-05  1.25259311E-04
  7.95477213E-05 -6.50595175E-05  7.15218877E-05 -9.34480977E-05  3.68087336E-05
MO  6                     OCC NO =   2.00000000 ORB. ENERGY =  -1.38710794
  1.07288473E-01  1.97320070E-01  3.22970688E-01  4.35243964E-01  4.30548982E-01
  4.79213305E-02  1.99420815E-01  5.33060920E-01 -7.61369796E-04 -1.10502360E-02
 -1.13457817E-02 -8.57450253E-03 -9.46236655E-02 -9.71544366E-02 -7.34238488E-02
 -1.02258511E-01 -1.04993481E-01 -7.93481569E-02 -2.77683409E-01 -4.44538001E-03
 -3.93301890E-02 -3.93673701E-02 -8.22872055E-02 -5.11063641E-05  1.46540957E-03
 -3.69867112E-03  1.76137592E-03 -1.37321579E-04 -2.24765094E-03  6.93344216E-04
  1.51246154E-02 -7.50826381E-03 -7.61635160E-03 -4.27214715E-03  5.83808294E-04
  7.74055586E-03  4.65857700E-02  8.56784247E-02  1.40237229E-01  1.88987452E-01
  1.86948842E-01  2.08079397E-02  8.65440368E-02  2.31336152E-01 -3.30416941E-04
 -4.44967695E-02 -4.56868644E-02 -3.45275578E-02  4.01224540E-02  4.11955550E-02
  3.11332792E-02  2.34929928E-02  2.41213281E-02  1.82295406E-02 -1.20281889E-01